
     Program MATDYN v.7.2 starts on 14Oct2024 at  9:12:12 

     This program is part of the open-source Quantum ESPRESSO suite
     for quantum simulation of materials; please cite
         "P. Giannozzi et al., J. Phys.:Condens. Matter 21 395502 (2009);
         "P. Giannozzi et al., J. Phys.:Condens. Matter 29 465901 (2017);
         "P. Giannozzi et al., J. Chem. Phys. 152 154105 (2020);
          URL http://www.quantum-espresso.org", 
     in publications or presentations arising from this work. More details at
     http://www.quantum-espresso.org/quote

     Parallel version (MPI & OpenMP), running on      64 processor cores
     Number of MPI processes:                64
     Threads/MPI process:                     1

     MPI processes distributed on     1 nodes
     R & G space division:  proc/nbgrp/npool/nimage =      64
     244484 MiB available memory on the printing compute node when the environment starts

     Message from routine matdyn:
     Z* not found in file IceIh.fc, TO-LO splitting at q=0 will be absent!
     Max |d(i,j)-d*(j,i)| =  0.002166
     Max |d(i,j)-d*(j,i)|/|d(i,j)|:   1.3134%
     Max |d(i,j)-d*(j,i)| =  0.002166
     Max |d(i,j)-d*(j,i)|/|d(i,j)|:   1.3110%
     Max |d(i,j)-d*(j,i)| =  0.002166
     Max |d(i,j)-d*(j,i)|/|d(i,j)|:   1.3084%
     Max |d(i,j)-d*(j,i)| =  0.002166
     Max |d(i,j)-d*(j,i)|/|d(i,j)|:   1.3086%
     Max |d(i,j)-d*(j,i)| =  0.002166
     Max |d(i,j)-d*(j,i)|/|d(i,j)|:   1.3122%
     Max |d(i,j)-d*(j,i)| =  0.002166
     Max |d(i,j)-d*(j,i)|/|d(i,j)|:   1.3179%
     Max |d(i,j)-d*(j,i)| =  0.002166
     Max |d(i,j)-d*(j,i)|/|d(i,j)|:   1.3194%
     Max |d(i,j)-d*(j,i)| =  0.002166
     Max |d(i,j)-d*(j,i)|/|d(i,j)|:   1.3153%
     Max |d(i,j)-d*(j,i)| =  0.002166
     Max |d(i,j)-d*(j,i)|/|d(i,j)|:   1.3109%
     Max |d(i,j)-d*(j,i)| =  0.002166
     Max |d(i,j)-d*(j,i)|/|d(i,j)|:   1.3143%
     Max |d(i,j)-d*(j,i)| =  0.002166
     Max |d(i,j)-d*(j,i)|/|d(i,j)|:   1.3145%
     Max |d(i,j)-d*(j,i)| =  0.002166
     Max |d(i,j)-d*(j,i)|/|d(i,j)|:   1.3115%
     Max |d(i,j)-d*(j,i)| =  0.002166
     Max |d(i,j)-d*(j,i)|/|d(i,j)|:   1.3156%
     Max |d(i,j)-d*(j,i)| =  0.002166
     Max |d(i,j)-d*(j,i)|/|d(i,j)|:   1.3162%
     Max |d(i,j)-d*(j,i)| =  0.002166
     Max |d(i,j)-d*(j,i)|/|d(i,j)|:   1.3144%
     Max |d(i,j)-d*(j,i)| =  0.002166
     Max |d(i,j)-d*(j,i)|/|d(i,j)|:   1.3116%
     Max |d(i,j)-d*(j,i)| =  0.002166
     Max |d(i,j)-d*(j,i)|/|d(i,j)|:   1.3144%
     Max |d(i,j)-d*(j,i)| =  0.002166
     Max |d(i,j)-d*(j,i)|/|d(i,j)|:   1.3147%
     Max |d(i,j)-d*(j,i)| =  0.002166
     Max |d(i,j)-d*(j,i)|/|d(i,j)|:   1.3124%
     Max |d(i,j)-d*(j,i)| =  0.002166
     Max |d(i,j)-d*(j,i)|/|d(i,j)|:   1.3178%
     Max |d(i,j)-d*(j,i)| =  0.002166
     Max |d(i,j)-d*(j,i)|/|d(i,j)|:   1.3226%
     Max |d(i,j)-d*(j,i)| =  0.002166
     Max |d(i,j)-d*(j,i)|/|d(i,j)|:   1.3217%
     Max |d(i,j)-d*(j,i)| =  0.002166
     Max |d(i,j)-d*(j,i)|/|d(i,j)|:   1.3163%
     Message from routine matdyn:
     Z* not found in file IceIh.fc, TO-LO splitting at q=0 will be absent!
     Max |d(i,j)-d*(j,i)| =  0.002166
     Max |d(i,j)-d*(j,i)|/|d(i,j)|:   1.3134%

     MATDYN       :      1.71s CPU      4.46s WALL


   This run was terminated on:   9:12:17  14Oct2024            

=------------------------------------------------------------------------------=
   JOB DONE.
=------------------------------------------------------------------------------=
