
     Program MATDYN v.7.3.1 starts on 17Oct2024 at 16: 0:38 
        Git branch: develop
        Last git commit: 4877a30719cc6e20c04c2eb5dc65117bbdaed33a
        Last git commit date: Wed Oct 16 17:04:25 2024 +0000
        Last git commit subject: Merge branch 'develop' into 'develop'

     This program is part of the open-source Quantum ESPRESSO suite
     for quantum simulation of materials; please cite
         "P. Giannozzi et al., J. Phys.:Condens. Matter 21 395502 (2009);
         "P. Giannozzi et al., J. Phys.:Condens. Matter 29 465901 (2017);
         "P. Giannozzi et al., J. Chem. Phys. 152 154105 (2020);
          URL http://www.quantum-espresso.org", 
     in publications or presentations arising from this work. More details at
     http://www.quantum-espresso.org/quote

     Parallel version (MPI), running on    14 processors

     MPI processes distributed on     1 nodes
     R & G space division:  proc/nbgrp/npool/nimage =      14
     13541 MiB available memory on the printing compute node when the environment starts

     Message from routine matdyn:
     Z* not found in file IceIh.fc, TO-LO splitting at q=0 will be absent!
     Max |d(i,j)-d*(j,i)| =  0.002166
     Max |d(i,j)-d*(j,i)|/|d(i,j)|:   1.3134%
     Max |d(i,j)-d*(j,i)| =  0.002166
     Max |d(i,j)-d*(j,i)|/|d(i,j)|:   1.3090%
     Max |d(i,j)-d*(j,i)| =  0.002166
     Max |d(i,j)-d*(j,i)|/|d(i,j)|:   1.3086%
     Max |d(i,j)-d*(j,i)| =  0.002166
     Max |d(i,j)-d*(j,i)|/|d(i,j)|:   1.3142%
     Max |d(i,j)-d*(j,i)| =  0.002166
     Max |d(i,j)-d*(j,i)|/|d(i,j)|:   1.3101%
     Max |d(i,j)-d*(j,i)| =  0.002166
     Max |d(i,j)-d*(j,i)|/|d(i,j)|:   1.3074%
     Max |d(i,j)-d*(j,i)| =  0.002166
     Max |d(i,j)-d*(j,i)|/|d(i,j)|:   1.3146%
     Max |d(i,j)-d*(j,i)| =  0.002166
     Max |d(i,j)-d*(j,i)|/|d(i,j)|:   1.3095%
     Max |d(i,j)-d*(j,i)| =  0.002166
     Max |d(i,j)-d*(j,i)|/|d(i,j)|:   1.3087%
     Max |d(i,j)-d*(j,i)| =  0.002166
     Max |d(i,j)-d*(j,i)|/|d(i,j)|:   1.3130%
     Max |d(i,j)-d*(j,i)| =  0.002166
     Max |d(i,j)-d*(j,i)|/|d(i,j)|:   1.3133%
     Max |d(i,j)-d*(j,i)| =  0.002166
     Max |d(i,j)-d*(j,i)|/|d(i,j)|:   1.3088%

     MATDYN       :      5.61s CPU      6.80s WALL


   This run was terminated on:  16: 0:45  17Oct2024            

=------------------------------------------------------------------------------=
   JOB DONE.
=------------------------------------------------------------------------------=
