
     Program PHONON v.7.2 starts on 11Oct2024 at 12:40:51 

     This program is part of the open-source Quantum ESPRESSO suite
     for quantum simulation of materials; please cite
         "P. Giannozzi et al., J. Phys.:Condens. Matter 21 395502 (2009);
         "P. Giannozzi et al., J. Phys.:Condens. Matter 29 465901 (2017);
         "P. Giannozzi et al., J. Chem. Phys. 152 154105 (2020);
          URL http://www.quantum-espresso.org", 
     in publications or presentations arising from this work. More details at
     http://www.quantum-espresso.org/quote

     Parallel version (MPI & OpenMP), running on      32 processor cores
     Number of MPI processes:                32
     Threads/MPI process:                     1

     MPI processes distributed on     1 nodes
     185871 MiB available memory on the printing compute node when the environment starts

     Reading input from ph.in

     Reading xml data from directory:

     ./out/IceIh.save/

     R & G space division:  proc/nbgrp/npool/nimage =      32
     Subspace diagonalization in iterative solution of the eigenvalue problem:
     a serial algorithm will be used

     file O.pbesol-n-kjpaw_psl.0.1.UPF: wavefunction(s)  2P renormalized

     IMPORTANT: XC functional enforced from input :
     Exchange-correlation= PBESOL
                           (   1   4  10   8   0   0   0)
     Any further DFT definition will be discarded
     Please, verify this is what you really want


     Parallelization info
     --------------------
     sticks:   dense  smooth     PW     G-vecs:    dense   smooth      PW
     Min         225      94     25                14597     3922     561
     Max         226      95     26                14602     3926     566
     Sum        7231    3013    823               467251   125607   18051

     Using Slab Decomposition

     Reading collected, re-writing distributed wavefunctions in ./out/


     Dynamical matrices for ( 4, 4, 4)  uniform grid of q-points
     (  12 q-points):
       N         xq(1)         xq(2)         xq(3) 
       1   0.000000000   0.000000000   0.000000000
       2   0.000000000   0.000000000   0.265625000
       3   0.000000000   0.000000000  -0.531250000
       4   0.000000000   0.288675135   0.000000000
       5   0.000000000   0.288675135   0.265625000
       6   0.000000000   0.288675135  -0.531250000
       7   0.000000000  -0.577350269   0.000000000
       8   0.000000000  -0.577350269   0.265625000
       9   0.000000000  -0.577350269  -0.531250000
      10   0.250000000   0.433012702   0.000000000
      11   0.250000000   0.433012702   0.265625000
      12   0.250000000   0.433012702  -0.531250000
Eigenvectors exchange needed    1   26
Eigenvectors exchange needed    3   28
Eigenvectors exchange needed    5   30
Eigenvectors exchange needed    7   32
Eigenvectors exchange needed    9   34
Eigenvectors exchange needed   11   36
Eigenvectors exchange needed   13   20
Eigenvectors exchange needed   15   22
Eigenvectors exchange needed   17   24
Eigenvectors exchange needed   19   36
Eigenvectors exchange needed   21   36
Eigenvectors exchange needed   23   36
Eigenvectors exchange needed   25   36
Eigenvectors exchange needed   27   36
Eigenvectors exchange needed   29   36
Eigenvectors exchange needed   31   36
Eigenvectors exchange needed   33   36
Eigenvectors exchange needed   35   36
Eigenvectors exchange needed   37   73
Eigenvectors exchange needed   37   74
Eigenvectors exchange needed   38   73
Eigenvectors exchange needed   39   74
Eigenvectors exchange needed   41   77
Eigenvectors exchange needed   41   78
Eigenvectors exchange needed   42   77
Eigenvectors exchange needed   43   78
Eigenvectors exchange needed   45   81
Eigenvectors exchange needed   45   82
Eigenvectors exchange needed   46   81
Eigenvectors exchange needed   47   82
Eigenvectors exchange needed   49   85
Eigenvectors exchange needed   49   86
Eigenvectors exchange needed   50   85
Eigenvectors exchange needed   51   86
Eigenvectors exchange needed   53   89
Eigenvectors exchange needed   53   90
Eigenvectors exchange needed   54   89
Eigenvectors exchange needed   55   90
Eigenvectors exchange needed   57   93
Eigenvectors exchange needed   57   94
Eigenvectors exchange needed   58   93
Eigenvectors exchange needed   59   94
Eigenvectors exchange needed   61   97
Eigenvectors exchange needed   61   98
Eigenvectors exchange needed   62   97
Eigenvectors exchange needed   63   98
Eigenvectors exchange needed   65  101
Eigenvectors exchange needed   65  102
Eigenvectors exchange needed   66  101
Eigenvectors exchange needed   67  102
Eigenvectors exchange needed   69  105
Eigenvectors exchange needed   69  106
Eigenvectors exchange needed   70  105
Eigenvectors exchange needed   71  106
Eigenvectors exchange needed   73   75
Eigenvectors exchange needed   73   76
Eigenvectors exchange needed   74   75
Eigenvectors exchange needed   75   76
Eigenvectors exchange needed   77   79
Eigenvectors exchange needed   77   80
Eigenvectors exchange needed   78   79
Eigenvectors exchange needed   79   80
Eigenvectors exchange needed   81   83
Eigenvectors exchange needed   81   84
Eigenvectors exchange needed   82   83
Eigenvectors exchange needed   83   84
Eigenvectors exchange needed   85   87
Eigenvectors exchange needed   85   88
Eigenvectors exchange needed   86   87
Eigenvectors exchange needed   87   88
Eigenvectors exchange needed   89   91
Eigenvectors exchange needed   89   92
Eigenvectors exchange needed   90   91
Eigenvectors exchange needed   91   92
Eigenvectors exchange needed   93   95
Eigenvectors exchange needed   93   96
Eigenvectors exchange needed   94   95
Eigenvectors exchange needed   95   96
Eigenvectors exchange needed   97   99
Eigenvectors exchange needed   97  100
Eigenvectors exchange needed   98   99
Eigenvectors exchange needed   99  100
Eigenvectors exchange needed  101  103
Eigenvectors exchange needed  101  104
Eigenvectors exchange needed  102  103
Eigenvectors exchange needed  103  104
Eigenvectors exchange needed  105  107
Eigenvectors exchange needed  105  108
Eigenvectors exchange needed  106  107
Eigenvectors exchange needed  107  108
Eigenvectors exchange needed   44   96
Eigenvectors exchange needed   46   99
Eigenvectors exchange needed   53  105
Eigenvectors exchange needed   16   66
Eigenvectors exchange needed    1   80
Eigenvectors exchange needed    3   82
Eigenvectors exchange needed    5   84
Eigenvectors exchange needed    7   86
Eigenvectors exchange needed    9   88
Eigenvectors exchange needed   11   90
Eigenvectors exchange needed   13   92
Eigenvectors exchange needed   15   94
Eigenvectors exchange needed   17   96
Eigenvectors exchange needed   19   98
Eigenvectors exchange needed   21  100
Eigenvectors exchange needed   23  102
Eigenvectors exchange needed   25  104
Eigenvectors exchange needed   27  106
Eigenvectors exchange needed   29  108
Eigenvectors exchange needed   31   56
Eigenvectors exchange needed   33   58
Eigenvectors exchange needed   35   60
Eigenvectors exchange needed   37   62
Eigenvectors exchange needed   39   64
Eigenvectors exchange needed   41   66
Eigenvectors exchange needed   43   68
Eigenvectors exchange needed   45   70
Eigenvectors exchange needed   47   72
Eigenvectors exchange needed   49   74
Eigenvectors exchange needed   51   76
Eigenvectors exchange needed   53   78
Eigenvectors exchange needed   55  108
Eigenvectors exchange needed   57  108
Eigenvectors exchange needed   59  108
Eigenvectors exchange needed   61  108
Eigenvectors exchange needed   63  108
Eigenvectors exchange needed   65  108
Eigenvectors exchange needed   67  108
Eigenvectors exchange needed   69  108
Eigenvectors exchange needed   71  108
Eigenvectors exchange needed   73  108
Eigenvectors exchange needed   75  108
Eigenvectors exchange needed   77  108
Eigenvectors exchange needed   79  108
Eigenvectors exchange needed   81  108
Eigenvectors exchange needed   83  108
Eigenvectors exchange needed   85  108
Eigenvectors exchange needed   87  108
Eigenvectors exchange needed   89  108
Eigenvectors exchange needed   91  108
Eigenvectors exchange needed   93  108
Eigenvectors exchange needed   95  108
Eigenvectors exchange needed   97  108
Eigenvectors exchange needed   99  108
Eigenvectors exchange needed  101  108
Eigenvectors exchange needed  103  108
Eigenvectors exchange needed  105  108
Eigenvectors exchange needed  107  108

     Calculation of q =    0.0000000   0.0000000   0.0000000

     Phonon dispersion                                                          

     bravais-lattice index     =            0
     lattice parameter (alat)  =      14.7777  a.u.
     unit-cell volume          =    2630.3804 (a.u.)^3
     number of atoms/cell      =           36
     number of atomic types    =            2
     kinetic-energy cut-off    =      50.0000  Ry
     charge density cut-off    =     480.0000  Ry
     convergence threshold     =      1.0E-14
     beta                      =       0.7000
     number of iterations used =            4
     Exchange-correlation= PBESOL
                           (   1   4  10   8   0   0   0)


     celldm(1)=   14.77766  celldm(2)=    0.00000  celldm(3)=    0.00000
     celldm(4)=    0.00000  celldm(5)=    0.00000  celldm(6)=    0.00000

     crystal axes: (cart. coord. in units of alat)
               a(1) = (  1.0000  0.0000  0.0000 )  
               a(2) = ( -0.5000  0.8660  0.0000 )  
               a(3) = (  0.0000  0.0000  0.9412 )  

     reciprocal axes: (cart. coord. in units 2 pi/alat)
               b(1) = (  1.0000  0.5774 -0.0000 )  
               b(2) = (  0.0000  1.1547  0.0000 )  
               b(3) = (  0.0000 -0.0000  1.0625 )  


     Atoms inside the unit cell: 

     Cartesian axes

     site n.  atom      mass           positions (alat units)
        1     O   15.9994   tau(    1) = (    0.16539    0.28646    0.52316  )
        2     O   15.9994   tau(    2) = (    0.66922    0.00000    0.52316  )
        3     O   15.9994   tau(    3) = (   -0.33461    0.57956    0.52316  )
        4     O   15.9994   tau(    4) = (    0.33461    0.57956    0.05258  )
        5     O   15.9994   tau(    5) = (    0.33078    0.00000    0.05258  )
        6     O   15.9994   tau(    6) = (   -0.16539    0.28646    0.05258  )
        7     O   15.9994   tau(    7) = (    0.33189    0.57484    0.40576  )
        8     O   15.9994   tau(    8) = (    0.33623    0.00000    0.40576  )
        9     O   15.9994   tau(    9) = (   -0.16811    0.29118    0.40576  )
       10     O   15.9994   tau(   10) = (    0.16811    0.29118    0.87635  )
       11     O   15.9994   tau(   11) = (    0.66377    0.00000    0.87635  )
       12     O   15.9994   tau(   12) = (   -0.33189    0.57484    0.87635  )
       13     H    1.0079   tau(   13) = (    0.16714    0.28950    0.65169  )
       14     H    1.0079   tau(   14) = (    0.66572    0.00000    0.65169  )
       15     H    1.0079   tau(   15) = (   -0.33286    0.57653    0.65169  )
       16     H    1.0079   tau(   16) = (    0.33286    0.57653    0.18110  )
       17     H    1.0079   tau(   17) = (    0.33428    0.00000    0.18110  )
       18     H    1.0079   tau(   18) = (   -0.16714    0.28950    0.18110  )
       19     H    1.0079   tau(   19) = (    0.22665    0.39257    0.48402  )
       20     H    1.0079   tau(   20) = (    0.54670    0.00000    0.48402  )
       21     H    1.0079   tau(   21) = (   -0.27335    0.47346    0.48402  )
       22     H    1.0079   tau(   22) = (    0.27335    0.47346    0.01343  )
       23     H    1.0079   tau(   23) = (    0.45330    0.00000    0.01343  )
       24     H    1.0079   tau(   24) = (   -0.22665    0.39257    0.01343  )
       25     H    1.0079   tau(   25) = (    0.45256    0.57796    0.45004  )
       26     H    1.0079   tau(   26) = (    0.27319    0.10295    0.45004  )
       27     H    1.0079   tau(   27) = (    0.77425    0.18512    0.45004  )
       28     H    1.0079   tau(   28) = (    0.27425    0.68091    0.45004  )
       29     H    1.0079   tau(   29) = (   -0.04744    0.28806    0.45004  )
       30     H    1.0079   tau(   30) = (   -0.22681    0.76308    0.45004  )
       31     H    1.0079   tau(   31) = (    0.04744    0.28806    0.92063  )
       32     H    1.0079   tau(   32) = (    0.22681    0.76308    0.92063  )
       33     H    1.0079   tau(   33) = (   -0.27425    0.68091    0.92063  )
       34     H    1.0079   tau(   34) = (    0.22575    0.18512    0.92063  )
       35     H    1.0079   tau(   35) = (    0.54744    0.57796    0.92063  )
       36     H    1.0079   tau(   36) = (    0.72681    0.10295    0.92063  )

     Computing dynamical matrix for 
                    q = (   0.0000000   0.0000000   0.0000000 )

     13 Sym.Ops. (with q -> -q+G )


     G cutoff = 2655.1725  (  14602 G-vectors)     FFT grid: (108,108,100)
     G cutoff = 1106.3219  (   3926 G-vectors)  smooth grid: ( 72, 72, 64)

     number of k points=     4  Marzari-Vanderbilt smearing, width (Ry)=  0.0147

     PseudoPot. # 1 for H  read from file:
     ./pseudo/H.pbesol-rrkjus_psl.1.0.0.UPF
     MD5 check sum: 0324ed591cc0147dc3d88cad0d33f665
     Pseudo is Ultrasoft, Zval =  1.0
     Generated using "atomic" code by A. Dal Corso  v.6.0 svn rev. 13079
     Using radial grid of  929 points,  2 beta functions with: 
                l(1) =   0
                l(2) =   0
     Q(r) pseudized with 0 coefficients 


     PseudoPot. # 2 for O  read from file:
     ./pseudo/O.pbesol-n-kjpaw_psl.0.1.UPF
     MD5 check sum: 81d73d1479e654e5638b0319f0d6c2c7
     Pseudo is Projector augmented-wave + core cor, Zval =  6.0
     Generated using "atomic" code by A. Dal Corso  v.6.0 svn rev. 13079
     Shape of augmentation charge: BESSEL
     Using radial grid of 1095 points,  4 beta functions with: 
                l(1) =   0
                l(2) =   0
                l(3) =   1
                l(4) =   1
     Q(r) pseudized with 0 coefficients 


     Mode symmetry, C_6v (6mm)  point group:


     Atomic displacements:
     There are   72 irreducible representations

     Representation     1      1 modes -  To be done

     Representation     2      1 modes -  To be done

     Representation     3      1 modes -  To be done

     Representation     4      1 modes -  To be done

     Representation     5      1 modes -  To be done

     Representation     6      1 modes -  To be done

     Representation     7      1 modes -  To be done

     Representation     8      1 modes -  To be done

     Representation     9      1 modes -  To be done

     Representation    10      1 modes -  To be done

     Representation    11      1 modes -  To be done

     Representation    12      1 modes -  To be done

     Representation    13      1 modes -  To be done

     Representation    14      1 modes -  To be done

     Representation    15      1 modes -  To be done

     Representation    16      1 modes -  To be done

     Representation    17      1 modes -  To be done

     Representation    18      1 modes -  To be done

     Representation    19      1 modes -  To be done

     Representation    20      1 modes -  To be done

     Representation    21      1 modes -  To be done

     Representation    22      1 modes -  To be done

     Representation    23      1 modes -  To be done

     Representation    24      1 modes -  To be done

     Representation    25      1 modes -  To be done

     Representation    26      1 modes -  To be done

     Representation    27      1 modes -  To be done

     Representation    28      1 modes -  To be done

     Representation    29      1 modes -  To be done

     Representation    30      1 modes -  To be done

     Representation    31      1 modes -  To be done

     Representation    32      1 modes -  To be done

     Representation    33      1 modes -  To be done

     Representation    34      1 modes -  To be done

     Representation    35      1 modes -  To be done

     Representation    36      1 modes -  To be done

     Representation    37      2 modes -  To be done

     Representation    38      2 modes -  To be done

     Representation    39      2 modes -  To be done

     Representation    40      2 modes -  To be done

     Representation    41      2 modes -  To be done

     Representation    42      2 modes -  To be done

     Representation    43      2 modes -  To be done

     Representation    44      2 modes -  To be done

     Representation    45      2 modes -  To be done

     Representation    46      2 modes -  To be done

     Representation    47      2 modes -  To be done

     Representation    48      2 modes -  To be done

     Representation    49      2 modes -  To be done

     Representation    50      2 modes -  To be done

     Representation    51      2 modes -  To be done

     Representation    52      2 modes -  To be done

     Representation    53      2 modes -  To be done

     Representation    54      2 modes -  To be done

     Representation    55      2 modes -  To be done

     Representation    56      2 modes -  To be done

     Representation    57      2 modes -  To be done

     Representation    58      2 modes -  To be done

     Representation    59      2 modes -  To be done

     Representation    60      2 modes -  To be done

     Representation    61      2 modes -  To be done

     Representation    62      2 modes -  To be done

     Representation    63      2 modes -  To be done

     Representation    64      2 modes -  To be done

     Representation    65      2 modes -  To be done

     Representation    66      2 modes -  To be done

     Representation    67      2 modes -  To be done

     Representation    68      2 modes -  To be done

     Representation    69      2 modes -  To be done

     Representation    70      2 modes -  To be done

     Representation    71      2 modes -  To be done

     Representation    72      2 modes -  To be done



     Alpha used in Ewald sum =   2.8000
     PHONON       :     19.40s CPU     21.84s WALL



     Representation #   1 mode #   1

     Self-consistent Calculation

     Pert. #  1: Fermi energy shift (Ry) =     0.0000E+00     0.0000E+00

      iter #   1 total cpu time :    23.7 secs   av.it.:   3.0
      thresh= 1.000E-02 alpha_mix =  0.700 |ddv_scf|^2 =  1.391E-09

     Pert. #  1: Fermi energy shift (Ry) =     0.0000E+00     0.0000E+00

      iter #   2 total cpu time :    26.4 secs   av.it.:  12.8
      thresh= 3.730E-06 alpha_mix =  0.700 |ddv_scf|^2 =  1.573E-10

     Pert. #  1: Fermi energy shift (Ry) =     0.0000E+00     0.0000E+00

      iter #   3 total cpu time :    29.1 secs   av.it.:  13.2
      thresh= 1.254E-06 alpha_mix =  0.700 |ddv_scf|^2 =  1.484E-11

     Pert. #  1: Fermi energy shift (Ry) =     0.0000E+00     0.0000E+00

      iter #   4 total cpu time :    31.9 secs   av.it.:  13.5
      thresh= 3.853E-07 alpha_mix =  0.700 |ddv_scf|^2 =  9.441E-13

     Pert. #  1: Fermi energy shift (Ry) =     0.0000E+00     0.0000E+00

      iter #   5 total cpu time :    34.7 secs   av.it.:  13.8
      thresh= 9.716E-08 alpha_mix =  0.700 |ddv_scf|^2 =  1.287E-14

     Pert. #  1: Fermi energy shift (Ry) =     0.0000E+00     0.0000E+00

      iter #   6 total cpu time :    37.5 secs   av.it.:  14.2
      thresh= 1.135E-08 alpha_mix =  0.700 |ddv_scf|^2 =  5.220E-15

     End of self-consistent calculation

     Convergence has been achieved 


     Representation #   2 mode #   2

     Self-consistent Calculation

     Pert. #  1: Fermi energy shift (Ry) =     0.0000E+00     0.0000E+00

      iter #   1 total cpu time :    40.2 secs   av.it.:   6.0
      thresh= 1.000E-02 alpha_mix =  0.700 |ddv_scf|^2 =  2.767E-08

     Pert. #  1: Fermi energy shift (Ry) =     0.0000E+00     0.0000E+00

      iter #   2 total cpu time :    43.0 secs   av.it.:  13.8
      thresh= 1.663E-05 alpha_mix =  0.700 |ddv_scf|^2 =  9.944E-10

     Pert. #  1: Fermi energy shift (Ry) =     0.0000E+00     0.0000E+00

      iter #   3 total cpu time :    45.8 secs   av.it.:  13.8
      thresh= 3.153E-06 alpha_mix =  0.700 |ddv_scf|^2 =  2.310E-10

     Pert. #  1: Fermi energy shift (Ry) =     0.0000E+00     0.0000E+00

      iter #   4 total cpu time :    48.6 secs   av.it.:  14.0
      thresh= 1.520E-06 alpha_mix =  0.700 |ddv_scf|^2 =  2.323E-11

     Pert. #  1: Fermi energy shift (Ry) =     0.0000E+00     0.0000E+00

      iter #   5 total cpu time :    51.4 secs   av.it.:  13.5
      thresh= 4.820E-07 alpha_mix =  0.700 |ddv_scf|^2 =  1.338E-12

     Pert. #  1: Fermi energy shift (Ry) =     0.0000E+00     0.0000E+00

      iter #   6 total cpu time :    54.2 secs   av.it.:  14.2
      thresh= 1.157E-07 alpha_mix =  0.700 |ddv_scf|^2 =  1.731E-13

     Pert. #  1: Fermi energy shift (Ry) =     0.0000E+00     0.0000E+00

      iter #   7 total cpu time :    57.0 secs   av.it.:  13.5
      thresh= 4.161E-08 alpha_mix =  0.700 |ddv_scf|^2 =  1.144E-15

     End of self-consistent calculation

     Convergence has been achieved 


     Representation #   3 mode #   3

     Self-consistent Calculation

     Pert. #  1: Fermi energy shift (Ry) =     0.0000E+00     0.0000E+00

      iter #   1 total cpu time :    59.6 secs   av.it.:   6.0
      thresh= 1.000E-02 alpha_mix =  0.700 |ddv_scf|^2 =  5.215E-08

     Pert. #  1: Fermi energy shift (Ry) =     0.0000E+00     0.0000E+00

      iter #   2 total cpu time :    62.4 secs   av.it.:  13.5
      thresh= 2.284E-05 alpha_mix =  0.700 |ddv_scf|^2 =  7.201E-09

     Pert. #  1: Fermi energy shift (Ry) =     0.0000E+00     0.0000E+00

      iter #   3 total cpu time :    65.1 secs   av.it.:  13.2
      thresh= 8.486E-06 alpha_mix =  0.700 |ddv_scf|^2 =  5.367E-10

     Pert. #  1: Fermi energy shift (Ry) =     0.0000E+00     0.0000E+00

      iter #   4 total cpu time :    67.9 secs   av.it.:  14.2
      thresh= 2.317E-06 alpha_mix =  0.700 |ddv_scf|^2 =  1.198E-10

     Pert. #  1: Fermi energy shift (Ry) =     0.0000E+00     0.0000E+00

      iter #   5 total cpu time :    70.7 secs   av.it.:  13.5
      thresh= 1.094E-06 alpha_mix =  0.700 |ddv_scf|^2 =  1.824E-12

     Pert. #  1: Fermi energy shift (Ry) =     0.0000E+00     0.0000E+00

      iter #   6 total cpu time :    73.5 secs   av.it.:  14.2
      thresh= 1.351E-07 alpha_mix =  0.700 |ddv_scf|^2 =  4.220E-13

     Pert. #  1: Fermi energy shift (Ry) =     0.0000E+00     0.0000E+00

      iter #   7 total cpu time :    76.3 secs   av.it.:  13.5
      thresh= 6.496E-08 alpha_mix =  0.700 |ddv_scf|^2 =  1.659E-14

     Pert. #  1: Fermi energy shift (Ry) =     0.0000E+00     0.0000E+00

      iter #   8 total cpu time :    79.1 secs   av.it.:  13.5
      thresh= 1.288E-08 alpha_mix =  0.700 |ddv_scf|^2 =  1.413E-16

     End of self-consistent calculation

     Convergence has been achieved 


     Representation #   4 mode #   4

     Self-consistent Calculation

     Pert. #  1: Fermi energy shift (Ry) =     0.0000E+00     0.0000E+00

      iter #   1 total cpu time :    81.6 secs   av.it.:   5.0
      thresh= 1.000E-02 alpha_mix =  0.700 |ddv_scf|^2 =  5.224E-08

     Pert. #  1: Fermi energy shift (Ry) =     0.0000E+00     0.0000E+00

      iter #   2 total cpu time :    84.4 secs   av.it.:  13.8
      thresh= 2.286E-05 alpha_mix =  0.700 |ddv_scf|^2 =  6.577E-09

     Pert. #  1: Fermi energy shift (Ry) =     0.0000E+00     0.0000E+00

      iter #   3 total cpu time :    87.1 secs   av.it.:  13.0
      thresh= 8.110E-06 alpha_mix =  0.700 |ddv_scf|^2 =  2.169E-10

     Pert. #  1: Fermi energy shift (Ry) =     0.0000E+00     0.0000E+00

      iter #   4 total cpu time :    89.9 secs   av.it.:  14.5
      thresh= 1.473E-06 alpha_mix =  0.700 |ddv_scf|^2 =  1.353E-10

     Pert. #  1: Fermi energy shift (Ry) =     0.0000E+00     0.0000E+00

      iter #   5 total cpu time :    92.7 secs   av.it.:  13.5
      thresh= 1.163E-06 alpha_mix =  0.700 |ddv_scf|^2 =  1.563E-12

     Pert. #  1: Fermi energy shift (Ry) =     0.0000E+00     0.0000E+00

      iter #   6 total cpu time :    95.4 secs   av.it.:  13.2
      thresh= 1.250E-07 alpha_mix =  0.700 |ddv_scf|^2 =  6.591E-15

     End of self-consistent calculation

     Convergence has been achieved 


     Representation #   5 mode #   5

     Self-consistent Calculation

     Pert. #  1: Fermi energy shift (Ry) =     0.0000E+00     0.0000E+00

      iter #   1 total cpu time :    97.7 secs   av.it.:   3.0
      thresh= 1.000E-02 alpha_mix =  0.700 |ddv_scf|^2 =  4.038E-10

     Pert. #  1: Fermi energy shift (Ry) =     0.0000E+00     0.0000E+00

      iter #   2 total cpu time :   100.5 secs   av.it.:  14.5
      thresh= 2.009E-06 alpha_mix =  0.700 |ddv_scf|^2 =  3.498E-10

     Pert. #  1: Fermi energy shift (Ry) =     0.0000E+00     0.0000E+00

      iter #   3 total cpu time :   103.4 secs   av.it.:  14.0
      thresh= 1.870E-06 alpha_mix =  0.700 |ddv_scf|^2 =  2.417E-11

     Pert. #  1: Fermi energy shift (Ry) =     0.0000E+00     0.0000E+00

      iter #   4 total cpu time :   106.1 secs   av.it.:  13.5
      thresh= 4.916E-07 alpha_mix =  0.700 |ddv_scf|^2 =  9.516E-13

     Pert. #  1: Fermi energy shift (Ry) =     0.0000E+00     0.0000E+00

      iter #   5 total cpu time :   108.9 secs   av.it.:  13.5
      thresh= 9.755E-08 alpha_mix =  0.700 |ddv_scf|^2 =  1.247E-13

     Pert. #  1: Fermi energy shift (Ry) =     0.0000E+00     0.0000E+00

      iter #   6 total cpu time :   111.7 secs   av.it.:  13.8
      thresh= 3.531E-08 alpha_mix =  0.700 |ddv_scf|^2 =  2.443E-15

     End of self-consistent calculation

     Convergence has been achieved 


     Representation #   6 mode #   6

     Self-consistent Calculation

     Pert. #  1: Fermi energy shift (Ry) =     0.0000E+00     0.0000E+00

      iter #   1 total cpu time :   114.0 secs   av.it.:   3.0
      thresh= 1.000E-02 alpha_mix =  0.700 |ddv_scf|^2 =  8.561E-10

     Pert. #  1: Fermi energy shift (Ry) =     0.0000E+00     0.0000E+00

      iter #   2 total cpu time :   116.8 secs   av.it.:  13.5
      thresh= 2.926E-06 alpha_mix =  0.700 |ddv_scf|^2 =  3.296E-10

     Pert. #  1: Fermi energy shift (Ry) =     0.0000E+00     0.0000E+00

      iter #   3 total cpu time :   119.6 secs   av.it.:  14.0
      thresh= 1.816E-06 alpha_mix =  0.700 |ddv_scf|^2 =  5.894E-11

     Pert. #  1: Fermi energy shift (Ry) =     0.0000E+00     0.0000E+00

      iter #   4 total cpu time :   122.3 secs   av.it.:  13.5
      thresh= 7.678E-07 alpha_mix =  0.700 |ddv_scf|^2 =  5.613E-13

     Pert. #  1: Fermi energy shift (Ry) =     0.0000E+00     0.0000E+00

      iter #   5 total cpu time :   125.1 secs   av.it.:  14.0
      thresh= 7.492E-08 alpha_mix =  0.700 |ddv_scf|^2 =  1.446E-13

     Pert. #  1: Fermi energy shift (Ry) =     0.0000E+00     0.0000E+00

      iter #   6 total cpu time :   128.0 secs   av.it.:  13.8
      thresh= 3.802E-08 alpha_mix =  0.700 |ddv_scf|^2 =  3.370E-15

     End of self-consistent calculation

     Convergence has been achieved 


     Representation #   7 mode #   7

     Self-consistent Calculation

     Pert. #  1: Fermi energy shift (Ry) =     0.0000E+00     0.0000E+00

      iter #   1 total cpu time :   130.3 secs   av.it.:   4.0
      thresh= 1.000E-02 alpha_mix =  0.700 |ddv_scf|^2 =  7.500E-10

     Pert. #  1: Fermi energy shift (Ry) =     0.0000E+00     0.0000E+00

      iter #   2 total cpu time :   133.2 secs   av.it.:  14.5
      thresh= 2.739E-06 alpha_mix =  0.700 |ddv_scf|^2 =  8.686E-10

     Pert. #  1: Fermi energy shift (Ry) =     0.0000E+00     0.0000E+00

      iter #   3 total cpu time :   136.0 secs   av.it.:  13.8
      thresh= 2.947E-06 alpha_mix =  0.700 |ddv_scf|^2 =  3.069E-11

     Pert. #  1: Fermi energy shift (Ry) =     0.0000E+00     0.0000E+00

      iter #   4 total cpu time :   138.7 secs   av.it.:  13.5
      thresh= 5.540E-07 alpha_mix =  0.700 |ddv_scf|^2 =  1.709E-12

     Pert. #  1: Fermi energy shift (Ry) =     0.0000E+00     0.0000E+00

      iter #   5 total cpu time :   141.5 secs   av.it.:  13.5
      thresh= 1.307E-07 alpha_mix =  0.700 |ddv_scf|^2 =  2.073E-13

     Pert. #  1: Fermi energy shift (Ry) =     0.0000E+00     0.0000E+00

      iter #   6 total cpu time :   144.3 secs   av.it.:  14.0
      thresh= 4.553E-08 alpha_mix =  0.700 |ddv_scf|^2 =  2.570E-15

     End of self-consistent calculation

     Convergence has been achieved 


     Representation #   8 mode #   8

     Self-consistent Calculation

     Pert. #  1: Fermi energy shift (Ry) =     0.0000E+00     0.0000E+00

      iter #   1 total cpu time :   146.7 secs   av.it.:   4.0
      thresh= 1.000E-02 alpha_mix =  0.700 |ddv_scf|^2 =  1.696E-09

     Pert. #  1: Fermi energy shift (Ry) =     0.0000E+00     0.0000E+00

      iter #   2 total cpu time :   149.6 secs   av.it.:  14.5
      thresh= 4.118E-06 alpha_mix =  0.700 |ddv_scf|^2 =  2.458E-09

     Pert. #  1: Fermi energy shift (Ry) =     0.0000E+00     0.0000E+00

      iter #   3 total cpu time :   152.3 secs   av.it.:  13.5
      thresh= 4.958E-06 alpha_mix =  0.700 |ddv_scf|^2 =  3.177E-11

     Pert. #  1: Fermi energy shift (Ry) =     0.0000E+00     0.0000E+00

      iter #   4 total cpu time :   155.1 secs   av.it.:  13.8
      thresh= 5.636E-07 alpha_mix =  0.700 |ddv_scf|^2 =  2.981E-12

     Pert. #  1: Fermi energy shift (Ry) =     0.0000E+00     0.0000E+00

      iter #   5 total cpu time :   157.9 secs   av.it.:  13.8
      thresh= 1.727E-07 alpha_mix =  0.700 |ddv_scf|^2 =  3.503E-14

     Pert. #  1: Fermi energy shift (Ry) =     0.0000E+00     0.0000E+00

      iter #   6 total cpu time :   160.6 secs   av.it.:  13.2
      thresh= 1.872E-08 alpha_mix =  0.700 |ddv_scf|^2 =  2.670E-15

     End of self-consistent calculation

     Convergence has been achieved 


     Representation #   9 mode #   9

     Self-consistent Calculation

     Pert. #  1: Fermi energy shift (Ry) =     0.0000E+00     0.0000E+00

      iter #   1 total cpu time :   163.2 secs   av.it.:   6.0
      thresh= 1.000E-02 alpha_mix =  0.700 |ddv_scf|^2 =  8.364E-08

     Pert. #  1: Fermi energy shift (Ry) =     0.0000E+00     0.0000E+00

      iter #   2 total cpu time :   165.9 secs   av.it.:  13.5
      thresh= 2.892E-05 alpha_mix =  0.700 |ddv_scf|^2 =  1.483E-08

     Pert. #  1: Fermi energy shift (Ry) =     0.0000E+00     0.0000E+00

      iter #   3 total cpu time :   168.6 secs   av.it.:  13.0
      thresh= 1.218E-05 alpha_mix =  0.700 |ddv_scf|^2 =  5.631E-10

     Pert. #  1: Fermi energy shift (Ry) =     0.0000E+00     0.0000E+00

      iter #   4 total cpu time :   171.5 secs   av.it.:  14.2
      thresh= 2.373E-06 alpha_mix =  0.700 |ddv_scf|^2 =  1.099E-10

     Pert. #  1: Fermi energy shift (Ry) =     0.0000E+00     0.0000E+00

      iter #   5 total cpu time :   174.2 secs   av.it.:  13.5
      thresh= 1.048E-06 alpha_mix =  0.700 |ddv_scf|^2 =  7.436E-13

     Pert. #  1: Fermi energy shift (Ry) =     0.0000E+00     0.0000E+00

      iter #   6 total cpu time :   177.0 secs   av.it.:  14.0
      thresh= 8.623E-08 alpha_mix =  0.700 |ddv_scf|^2 =  2.269E-13

     Pert. #  1: Fermi energy shift (Ry) =     0.0000E+00     0.0000E+00

      iter #   7 total cpu time :   179.8 secs   av.it.:  13.5
      thresh= 4.763E-08 alpha_mix =  0.700 |ddv_scf|^2 =  2.216E-15

     End of self-consistent calculation

     Convergence has been achieved 


     Representation #  10 mode #  10

     Self-consistent Calculation

     Pert. #  1: Fermi energy shift (Ry) =     0.0000E+00     0.0000E+00

      iter #   1 total cpu time :   182.2 secs   av.it.:   4.0
      thresh= 1.000E-02 alpha_mix =  0.700 |ddv_scf|^2 =  6.050E-10

     Pert. #  1: Fermi energy shift (Ry) =     0.0000E+00     0.0000E+00

      iter #   2 total cpu time :   185.0 secs   av.it.:  14.5
      thresh= 2.460E-06 alpha_mix =  0.700 |ddv_scf|^2 =  7.427E-10

     Pert. #  1: Fermi energy shift (Ry) =     0.0000E+00     0.0000E+00

      iter #   3 total cpu time :   187.8 secs   av.it.:  13.8
      thresh= 2.725E-06 alpha_mix =  0.700 |ddv_scf|^2 =  1.969E-11

     Pert. #  1: Fermi energy shift (Ry) =     0.0000E+00     0.0000E+00

      iter #   4 total cpu time :   190.6 secs   av.it.:  13.5
      thresh= 4.438E-07 alpha_mix =  0.700 |ddv_scf|^2 =  1.678E-12

     Pert. #  1: Fermi energy shift (Ry) =     0.0000E+00     0.0000E+00

      iter #   5 total cpu time :   193.4 secs   av.it.:  13.5
      thresh= 1.295E-07 alpha_mix =  0.700 |ddv_scf|^2 =  4.124E-14

     Pert. #  1: Fermi energy shift (Ry) =     0.0000E+00     0.0000E+00

      iter #   6 total cpu time :   196.2 secs   av.it.:  13.5
      thresh= 2.031E-08 alpha_mix =  0.700 |ddv_scf|^2 =  2.383E-15

     End of self-consistent calculation

     Convergence has been achieved 


     Representation #  11 mode #  11

     Self-consistent Calculation

     Pert. #  1: Fermi energy shift (Ry) =     0.0000E+00     0.0000E+00

      iter #   1 total cpu time :   198.5 secs   av.it.:   3.0
      thresh= 1.000E-02 alpha_mix =  0.700 |ddv_scf|^2 =  3.324E-10

     Pert. #  1: Fermi energy shift (Ry) =     0.0000E+00     0.0000E+00

      iter #   2 total cpu time :   201.3 secs   av.it.:  14.2
      thresh= 1.823E-06 alpha_mix =  0.700 |ddv_scf|^2 =  8.330E-11

     Pert. #  1: Fermi energy shift (Ry) =     0.0000E+00     0.0000E+00

      iter #   3 total cpu time :   204.2 secs   av.it.:  14.5
      thresh= 9.127E-07 alpha_mix =  0.700 |ddv_scf|^2 =  3.259E-11

     Pert. #  1: Fermi energy shift (Ry) =     0.0000E+00     0.0000E+00

      iter #   4 total cpu time :   206.9 secs   av.it.:  13.5
      thresh= 5.709E-07 alpha_mix =  0.700 |ddv_scf|^2 =  3.339E-13

     Pert. #  1: Fermi energy shift (Ry) =     0.0000E+00     0.0000E+00

      iter #   5 total cpu time :   209.8 secs   av.it.:  14.2
      thresh= 5.779E-08 alpha_mix =  0.700 |ddv_scf|^2 =  4.981E-14

     Pert. #  1: Fermi energy shift (Ry) =     0.0000E+00     0.0000E+00

      iter #   6 total cpu time :   212.6 secs   av.it.:  13.8
      thresh= 2.232E-08 alpha_mix =  0.700 |ddv_scf|^2 =  6.462E-15

     End of self-consistent calculation

     Convergence has been achieved 


     Representation #  12 mode #  12

     Self-consistent Calculation

     Pert. #  1: Fermi energy shift (Ry) =     0.0000E+00     0.0000E+00

      iter #   1 total cpu time :   215.1 secs   av.it.:   5.0
      thresh= 1.000E-02 alpha_mix =  0.700 |ddv_scf|^2 =  3.661E-08

     Pert. #  1: Fermi energy shift (Ry) =     0.0000E+00     0.0000E+00

      iter #   2 total cpu time :   217.9 secs   av.it.:  13.5
      thresh= 1.913E-05 alpha_mix =  0.700 |ddv_scf|^2 =  1.742E-09

     Pert. #  1: Fermi energy shift (Ry) =     0.0000E+00     0.0000E+00

      iter #   3 total cpu time :   220.6 secs   av.it.:  12.5
      thresh= 4.174E-06 alpha_mix =  0.700 |ddv_scf|^2 =  1.787E-11

     Pert. #  1: Fermi energy shift (Ry) =     0.0000E+00     0.0000E+00

      iter #   4 total cpu time :   223.2 secs   av.it.:  12.5
      thresh= 4.227E-07 alpha_mix =  0.700 |ddv_scf|^2 =  1.190E-12

     Pert. #  1: Fermi energy shift (Ry) =     0.0000E+00     0.0000E+00

      iter #   5 total cpu time :   226.1 secs   av.it.:  12.0
      thresh= 1.091E-07 alpha_mix =  0.700 |ddv_scf|^2 =  2.342E-15

     End of self-consistent calculation

     Convergence has been achieved 


     Representation #  13 mode #  13

     Self-consistent Calculation

     Pert. #  1: Fermi energy shift (Ry) =     0.0000E+00     0.0000E+00

      iter #   1 total cpu time :   228.4 secs   av.it.:   3.0
      thresh= 1.000E-02 alpha_mix =  0.700 |ddv_scf|^2 =  2.854E-10

     Pert. #  1: Fermi energy shift (Ry) =     0.0000E+00     0.0000E+00

      iter #   2 total cpu time :   231.1 secs   av.it.:  13.5
      thresh= 1.689E-06 alpha_mix =  0.700 |ddv_scf|^2 =  9.378E-12

     Pert. #  1: Fermi energy shift (Ry) =     0.0000E+00     0.0000E+00

      iter #   3 total cpu time :   233.9 secs   av.it.:  13.5
      thresh= 3.062E-07 alpha_mix =  0.700 |ddv_scf|^2 =  4.167E-13

     Pert. #  1: Fermi energy shift (Ry) =     0.0000E+00     0.0000E+00

      iter #   4 total cpu time :   236.6 secs   av.it.:  13.5
      thresh= 6.455E-08 alpha_mix =  0.700 |ddv_scf|^2 =  4.846E-15

     End of self-consistent calculation

     Convergence has been achieved 


     Representation #  14 mode #  14

     Self-consistent Calculation

     Pert. #  1: Fermi energy shift (Ry) =     0.0000E+00     0.0000E+00

      iter #   1 total cpu time :   238.9 secs   av.it.:   3.0
      thresh= 1.000E-02 alpha_mix =  0.700 |ddv_scf|^2 =  1.488E-10

     Pert. #  1: Fermi energy shift (Ry) =     0.0000E+00     0.0000E+00

      iter #   2 total cpu time :   241.7 secs   av.it.:  13.5
      thresh= 1.220E-06 alpha_mix =  0.700 |ddv_scf|^2 =  4.026E-12

     Pert. #  1: Fermi energy shift (Ry) =     0.0000E+00     0.0000E+00

      iter #   3 total cpu time :   244.4 secs   av.it.:  13.5
      thresh= 2.006E-07 alpha_mix =  0.700 |ddv_scf|^2 =  2.466E-13

     Pert. #  1: Fermi energy shift (Ry) =     0.0000E+00     0.0000E+00

      iter #   4 total cpu time :   247.2 secs   av.it.:  13.5
      thresh= 4.966E-08 alpha_mix =  0.700 |ddv_scf|^2 =  6.974E-15

     End of self-consistent calculation

     Convergence has been achieved 


     Representation #  15 mode #  15

     Self-consistent Calculation

     Pert. #  1: Fermi energy shift (Ry) =     0.0000E+00     0.0000E+00

      iter #   1 total cpu time :   250.2 secs   av.it.:   3.0
      thresh= 1.000E-02 alpha_mix =  0.700 |ddv_scf|^2 =  1.047E-10

     Pert. #  1: Fermi energy shift (Ry) =     0.0000E+00     0.0000E+00

      iter #   2 total cpu time :   252.9 secs   av.it.:  13.2
      thresh= 1.023E-06 alpha_mix =  0.700 |ddv_scf|^2 =  5.028E-12

     Pert. #  1: Fermi energy shift (Ry) =     0.0000E+00     0.0000E+00

      iter #   3 total cpu time :   255.6 secs   av.it.:  13.2
      thresh= 2.242E-07 alpha_mix =  0.700 |ddv_scf|^2 =  2.586E-13

     Pert. #  1: Fermi energy shift (Ry) =     0.0000E+00     0.0000E+00

      iter #   4 total cpu time :   258.3 secs   av.it.:  12.5
      thresh= 5.085E-08 alpha_mix =  0.700 |ddv_scf|^2 =  5.353E-15

     End of self-consistent calculation

     Convergence has been achieved 


     Representation #  16 mode #  16

     Self-consistent Calculation

     Pert. #  1: Fermi energy shift (Ry) =     0.0000E+00     0.0000E+00

      iter #   1 total cpu time :   260.6 secs   av.it.:   3.0
      thresh= 1.000E-02 alpha_mix =  0.700 |ddv_scf|^2 =  6.713E-11

     Pert. #  1: Fermi energy shift (Ry) =     0.0000E+00     0.0000E+00

      iter #   2 total cpu time :   263.4 secs   av.it.:  14.0
      thresh= 8.193E-07 alpha_mix =  0.700 |ddv_scf|^2 =  2.153E-12

     Pert. #  1: Fermi energy shift (Ry) =     0.0000E+00     0.0000E+00

      iter #   3 total cpu time :   266.2 secs   av.it.:  13.5
      thresh= 1.467E-07 alpha_mix =  0.700 |ddv_scf|^2 =  1.276E-13

     Pert. #  1: Fermi energy shift (Ry) =     0.0000E+00     0.0000E+00

      iter #   4 total cpu time :   268.9 secs   av.it.:  13.0
      thresh= 3.572E-08 alpha_mix =  0.700 |ddv_scf|^2 =  2.044E-15

     End of self-consistent calculation

     Convergence has been achieved 


     Representation #  17 mode #  17

     Self-consistent Calculation

     Pert. #  1: Fermi energy shift (Ry) =     0.0000E+00     0.0000E+00

      iter #   1 total cpu time :   271.5 secs   av.it.:   5.8
      thresh= 1.000E-02 alpha_mix =  0.700 |ddv_scf|^2 =  4.267E-08

     Pert. #  1: Fermi energy shift (Ry) =     0.0000E+00     0.0000E+00

      iter #   2 total cpu time :   274.2 secs   av.it.:  13.5
      thresh= 2.066E-05 alpha_mix =  0.700 |ddv_scf|^2 =  2.910E-09

     Pert. #  1: Fermi energy shift (Ry) =     0.0000E+00     0.0000E+00

      iter #   3 total cpu time :   276.9 secs   av.it.:  12.5
      thresh= 5.394E-06 alpha_mix =  0.700 |ddv_scf|^2 =  1.720E-11

     Pert. #  1: Fermi energy shift (Ry) =     0.0000E+00     0.0000E+00

      iter #   4 total cpu time :   279.5 secs   av.it.:  12.5
      thresh= 4.148E-07 alpha_mix =  0.700 |ddv_scf|^2 =  7.873E-13

     Pert. #  1: Fermi energy shift (Ry) =     0.0000E+00     0.0000E+00

      iter #   5 total cpu time :   282.1 secs   av.it.:  11.5
      thresh= 8.873E-08 alpha_mix =  0.700 |ddv_scf|^2 =  3.163E-15

     End of self-consistent calculation

     Convergence has been achieved 


     Representation #  18 mode #  18

     Self-consistent Calculation

     Pert. #  1: Fermi energy shift (Ry) =     0.0000E+00     0.0000E+00

      iter #   1 total cpu time :   284.3 secs   av.it.:   3.0
      thresh= 1.000E-02 alpha_mix =  0.700 |ddv_scf|^2 =  1.265E-10

     Pert. #  1: Fermi energy shift (Ry) =     0.0000E+00     0.0000E+00

      iter #   2 total cpu time :   287.0 secs   av.it.:  13.0
      thresh= 1.125E-06 alpha_mix =  0.700 |ddv_scf|^2 =  5.011E-12

     Pert. #  1: Fermi energy shift (Ry) =     0.0000E+00     0.0000E+00

      iter #   3 total cpu time :   289.8 secs   av.it.:  13.5
      thresh= 2.238E-07 alpha_mix =  0.700 |ddv_scf|^2 =  3.214E-13

     Pert. #  1: Fermi energy shift (Ry) =     0.0000E+00     0.0000E+00

      iter #   4 total cpu time :   292.5 secs   av.it.:  13.2
      thresh= 5.669E-08 alpha_mix =  0.700 |ddv_scf|^2 =  2.691E-15

     End of self-consistent calculation

     Convergence has been achieved 


     Representation #  19 mode #  19

     Self-consistent Calculation

     Pert. #  1: Fermi energy shift (Ry) =     0.0000E+00     0.0000E+00

      iter #   1 total cpu time :   295.0 secs   av.it.:   6.0
      thresh= 1.000E-02 alpha_mix =  0.700 |ddv_scf|^2 =  9.025E-08

     Pert. #  1: Fermi energy shift (Ry) =     0.0000E+00     0.0000E+00

      iter #   2 total cpu time :   297.7 secs   av.it.:  12.5
      thresh= 3.004E-05 alpha_mix =  0.700 |ddv_scf|^2 =  1.669E-08

     Pert. #  1: Fermi energy shift (Ry) =     0.0000E+00     0.0000E+00

      iter #   3 total cpu time :   300.3 secs   av.it.:  12.5
      thresh= 1.292E-05 alpha_mix =  0.700 |ddv_scf|^2 =  4.260E-11

     Pert. #  1: Fermi energy shift (Ry) =     0.0000E+00     0.0000E+00

      iter #   4 total cpu time :   303.0 secs   av.it.:  12.5
      thresh= 6.527E-07 alpha_mix =  0.700 |ddv_scf|^2 =  1.134E-12

     Pert. #  1: Fermi energy shift (Ry) =     0.0000E+00     0.0000E+00

      iter #   5 total cpu time :   305.5 secs   av.it.:  11.5
      thresh= 1.065E-07 alpha_mix =  0.700 |ddv_scf|^2 =  1.693E-14

     Pert. #  1: Fermi energy shift (Ry) =     0.0000E+00     0.0000E+00

      iter #   6 total cpu time :   308.3 secs   av.it.:  12.8
      thresh= 1.301E-08 alpha_mix =  0.700 |ddv_scf|^2 =  8.744E-17

     End of self-consistent calculation

     Convergence has been achieved 


     Representation #  20 mode #  20

     Self-consistent Calculation

     Pert. #  1: Fermi energy shift (Ry) =     0.0000E+00     0.0000E+00

      iter #   1 total cpu time :   310.5 secs   av.it.:   3.0
      thresh= 1.000E-02 alpha_mix =  0.700 |ddv_scf|^2 =  5.403E-10

     Pert. #  1: Fermi energy shift (Ry) =     0.0000E+00     0.0000E+00

      iter #   2 total cpu time :   313.2 secs   av.it.:  12.5
      thresh= 2.324E-06 alpha_mix =  0.700 |ddv_scf|^2 =  5.974E-11

     Pert. #  1: Fermi energy shift (Ry) =     0.0000E+00     0.0000E+00

      iter #   3 total cpu time :   315.8 secs   av.it.:  12.5
      thresh= 7.729E-07 alpha_mix =  0.700 |ddv_scf|^2 =  6.527E-13

     Pert. #  1: Fermi energy shift (Ry) =     0.0000E+00     0.0000E+00

      iter #   4 total cpu time :   318.6 secs   av.it.:  13.2
      thresh= 8.079E-08 alpha_mix =  0.700 |ddv_scf|^2 =  5.544E-15

     End of self-consistent calculation

     Convergence has been achieved 


     Representation #  21 mode #  21

     Self-consistent Calculation

     Pert. #  1: Fermi energy shift (Ry) =     0.0000E+00     0.0000E+00

      iter #   1 total cpu time :   320.8 secs   av.it.:   3.0
      thresh= 1.000E-02 alpha_mix =  0.700 |ddv_scf|^2 =  9.371E-10

     Pert. #  1: Fermi energy shift (Ry) =     0.0000E+00     0.0000E+00

      iter #   2 total cpu time :   323.5 secs   av.it.:  12.8
      thresh= 3.061E-06 alpha_mix =  0.700 |ddv_scf|^2 =  9.609E-11

     Pert. #  1: Fermi energy shift (Ry) =     0.0000E+00     0.0000E+00

      iter #   3 total cpu time :   326.2 secs   av.it.:  12.5
      thresh= 9.802E-07 alpha_mix =  0.700 |ddv_scf|^2 =  8.952E-13

     Pert. #  1: Fermi energy shift (Ry) =     0.0000E+00     0.0000E+00

      iter #   4 total cpu time :   328.9 secs   av.it.:  13.5
      thresh= 9.462E-08 alpha_mix =  0.700 |ddv_scf|^2 =  9.324E-15

     End of self-consistent calculation

     Convergence has been achieved 


     Representation #  22 mode #  22

     Self-consistent Calculation

     Pert. #  1: Fermi energy shift (Ry) =     0.0000E+00     0.0000E+00

      iter #   1 total cpu time :   331.2 secs   av.it.:   3.0
      thresh= 1.000E-02 alpha_mix =  0.700 |ddv_scf|^2 =  6.785E-10

     Pert. #  1: Fermi energy shift (Ry) =     0.0000E+00     0.0000E+00

      iter #   2 total cpu time :   333.9 secs   av.it.:  13.0
      thresh= 2.605E-06 alpha_mix =  0.700 |ddv_scf|^2 =  7.445E-11

     Pert. #  1: Fermi energy shift (Ry) =     0.0000E+00     0.0000E+00

      iter #   3 total cpu time :   336.5 secs   av.it.:  12.5
      thresh= 8.629E-07 alpha_mix =  0.700 |ddv_scf|^2 =  6.796E-13

     Pert. #  1: Fermi energy shift (Ry) =     0.0000E+00     0.0000E+00

      iter #   4 total cpu time :   339.3 secs   av.it.:  13.5
      thresh= 8.244E-08 alpha_mix =  0.700 |ddv_scf|^2 =  9.129E-15

     End of self-consistent calculation

     Convergence has been achieved 


     Representation #  23 mode #  23

     Self-consistent Calculation

     Pert. #  1: Fermi energy shift (Ry) =     0.0000E+00     0.0000E+00

      iter #   1 total cpu time :   341.8 secs   av.it.:   5.0
      thresh= 1.000E-02 alpha_mix =  0.700 |ddv_scf|^2 =  7.834E-08

     Pert. #  1: Fermi energy shift (Ry) =     0.0000E+00     0.0000E+00

      iter #   2 total cpu time :   344.5 secs   av.it.:  13.5
      thresh= 2.799E-05 alpha_mix =  0.700 |ddv_scf|^2 =  1.163E-08

     Pert. #  1: Fermi energy shift (Ry) =     0.0000E+00     0.0000E+00

      iter #   3 total cpu time :   347.2 secs   av.it.:  12.5
      thresh= 1.078E-05 alpha_mix =  0.700 |ddv_scf|^2 =  2.658E-11

     Pert. #  1: Fermi energy shift (Ry) =     0.0000E+00     0.0000E+00

      iter #   4 total cpu time :   349.9 secs   av.it.:  12.5
      thresh= 5.155E-07 alpha_mix =  0.700 |ddv_scf|^2 =  2.122E-12

     Pert. #  1: Fermi energy shift (Ry) =     0.0000E+00     0.0000E+00

      iter #   5 total cpu time :   352.4 secs   av.it.:  11.5
      thresh= 1.457E-07 alpha_mix =  0.700 |ddv_scf|^2 =  1.489E-14

     Pert. #  1: Fermi energy shift (Ry) =     0.0000E+00     0.0000E+00

      iter #   6 total cpu time :   355.1 secs   av.it.:  12.5
      thresh= 1.220E-08 alpha_mix =  0.700 |ddv_scf|^2 =  1.789E-16

     End of self-consistent calculation

     Convergence has been achieved 


     Representation #  24 mode #  24

     Self-consistent Calculation

     Pert. #  1: Fermi energy shift (Ry) =     0.0000E+00     0.0000E+00

      iter #   1 total cpu time :   357.3 secs   av.it.:   3.0
      thresh= 1.000E-02 alpha_mix =  0.700 |ddv_scf|^2 =  4.506E-11

     Pert. #  1: Fermi energy shift (Ry) =     0.0000E+00     0.0000E+00

      iter #   2 total cpu time :   360.0 secs   av.it.:  13.5
      thresh= 6.712E-07 alpha_mix =  0.700 |ddv_scf|^2 =  2.742E-12

     Pert. #  1: Fermi energy shift (Ry) =     0.0000E+00     0.0000E+00

      iter #   3 total cpu time :   362.7 secs   av.it.:  12.5
      thresh= 1.656E-07 alpha_mix =  0.700 |ddv_scf|^2 =  3.311E-13

     Pert. #  1: Fermi energy shift (Ry) =     0.0000E+00     0.0000E+00

      iter #   4 total cpu time :   365.4 secs   av.it.:  12.5
      thresh= 5.754E-08 alpha_mix =  0.700 |ddv_scf|^2 =  4.261E-15

     End of self-consistent calculation

     Convergence has been achieved 


     Representation #  25 mode #  25

     Self-consistent Calculation

     Pert. #  1: Fermi energy shift (Ry) =     0.0000E+00     0.0000E+00

      iter #   1 total cpu time :   367.7 secs   av.it.:   3.0
      thresh= 1.000E-02 alpha_mix =  0.700 |ddv_scf|^2 =  7.301E-11

     Pert. #  1: Fermi energy shift (Ry) =     0.0000E+00     0.0000E+00

      iter #   2 total cpu time :   370.5 secs   av.it.:  13.8
      thresh= 8.545E-07 alpha_mix =  0.700 |ddv_scf|^2 =  5.370E-12

     Pert. #  1: Fermi energy shift (Ry) =     0.0000E+00     0.0000E+00

      iter #   3 total cpu time :   373.2 secs   av.it.:  13.5
      thresh= 2.317E-07 alpha_mix =  0.700 |ddv_scf|^2 =  4.476E-13

     Pert. #  1: Fermi energy shift (Ry) =     0.0000E+00     0.0000E+00

      iter #   4 total cpu time :   375.9 secs   av.it.:  12.5
      thresh= 6.690E-08 alpha_mix =  0.700 |ddv_scf|^2 =  1.702E-14

     Pert. #  1: Fermi energy shift (Ry) =     0.0000E+00     0.0000E+00

      iter #   5 total cpu time :   378.5 secs   av.it.:  12.5
      thresh= 1.305E-08 alpha_mix =  0.700 |ddv_scf|^2 =  5.142E-16

     End of self-consistent calculation

     Convergence has been achieved 


     Representation #  26 mode #  26

     Self-consistent Calculation

     Pert. #  1: Fermi energy shift (Ry) =     0.0000E+00     0.0000E+00

      iter #   1 total cpu time :   380.8 secs   av.it.:   3.2
      thresh= 1.000E-02 alpha_mix =  0.700 |ddv_scf|^2 =  2.009E-09

     Pert. #  1: Fermi energy shift (Ry) =     0.0000E+00     0.0000E+00

      iter #   2 total cpu time :   383.5 secs   av.it.:  13.2
      thresh= 4.482E-06 alpha_mix =  0.700 |ddv_scf|^2 =  8.689E-10

     Pert. #  1: Fermi energy shift (Ry) =     0.0000E+00     0.0000E+00

      iter #   3 total cpu time :   520.4 secs   av.it.:  13.5
      thresh= 2.948E-06 alpha_mix =  0.700 |ddv_scf|^2 =  6.795E-11

     Pert. #  1: Fermi energy shift (Ry) =     0.0000E+00     0.0000E+00

      iter #   4 total cpu time :   523.1 secs   av.it.:  13.5
      thresh= 8.243E-07 alpha_mix =  0.700 |ddv_scf|^2 =  1.054E-12

     Pert. #  1: Fermi energy shift (Ry) =     0.0000E+00     0.0000E+00

      iter #   5 total cpu time :   526.0 secs   av.it.:  14.2
      thresh= 1.026E-07 alpha_mix =  0.700 |ddv_scf|^2 =  2.512E-13

     Pert. #  1: Fermi energy shift (Ry) =     0.0000E+00     0.0000E+00

      iter #   6 total cpu time :   528.8 secs   av.it.:  14.0
      thresh= 5.012E-08 alpha_mix =  0.700 |ddv_scf|^2 =  1.966E-14

     Pert. #  1: Fermi energy shift (Ry) =     0.0000E+00     0.0000E+00

      iter #   7 total cpu time :   531.6 secs   av.it.:  14.0
      thresh= 1.402E-08 alpha_mix =  0.700 |ddv_scf|^2 =  3.162E-15

     End of self-consistent calculation

     Convergence has been achieved 


     Representation #  27 mode #  27

     Self-consistent Calculation

     Pert. #  1: Fermi energy shift (Ry) =     0.0000E+00     0.0000E+00

      iter #   1 total cpu time :   533.9 secs   av.it.:   4.0
      thresh= 1.000E-02 alpha_mix =  0.700 |ddv_scf|^2 =  9.259E-10

     Pert. #  1: Fermi energy shift (Ry) =     0.0000E+00     0.0000E+00

      iter #   2 total cpu time :   536.8 secs   av.it.:  14.5
      thresh= 3.043E-06 alpha_mix =  0.700 |ddv_scf|^2 =  8.503E-10

     Pert. #  1: Fermi energy shift (Ry) =     0.0000E+00     0.0000E+00

      iter #   3 total cpu time :   539.5 secs   av.it.:  13.8
      thresh= 2.916E-06 alpha_mix =  0.700 |ddv_scf|^2 =  2.743E-11

     Pert. #  1: Fermi energy shift (Ry) =     0.0000E+00     0.0000E+00

      iter #   4 total cpu time :   542.3 secs   av.it.:  13.5
      thresh= 5.238E-07 alpha_mix =  0.700 |ddv_scf|^2 =  5.109E-12

     Pert. #  1: Fermi energy shift (Ry) =     0.0000E+00     0.0000E+00

      iter #   5 total cpu time :   545.0 secs   av.it.:  13.2
      thresh= 2.260E-07 alpha_mix =  0.700 |ddv_scf|^2 =  3.615E-13

     Pert. #  1: Fermi energy shift (Ry) =     0.0000E+00     0.0000E+00

      iter #   6 total cpu time :   547.9 secs   av.it.:  13.5
      thresh= 6.012E-08 alpha_mix =  0.700 |ddv_scf|^2 =  2.869E-15

     End of self-consistent calculation

     Convergence has been achieved 


     Representation #  28 mode #  28

     Self-consistent Calculation

     Pert. #  1: Fermi energy shift (Ry) =     0.0000E+00     0.0000E+00

      iter #   1 total cpu time :   550.5 secs   av.it.:   6.0
      thresh= 1.000E-02 alpha_mix =  0.700 |ddv_scf|^2 =  4.906E-08

     Pert. #  1: Fermi energy shift (Ry) =     0.0000E+00     0.0000E+00

      iter #   2 total cpu time :   553.4 secs   av.it.:  13.8
      thresh= 2.215E-05 alpha_mix =  0.700 |ddv_scf|^2 =  4.501E-09

     Pert. #  1: Fermi energy shift (Ry) =     0.0000E+00     0.0000E+00

      iter #   3 total cpu time :   556.1 secs   av.it.:  13.2
      thresh= 6.709E-06 alpha_mix =  0.700 |ddv_scf|^2 =  2.388E-10

     Pert. #  1: Fermi energy shift (Ry) =     0.0000E+00     0.0000E+00

      iter #   4 total cpu time :   559.0 secs   av.it.:  14.2
      thresh= 1.545E-06 alpha_mix =  0.700 |ddv_scf|^2 =  5.625E-11

     Pert. #  1: Fermi energy shift (Ry) =     0.0000E+00     0.0000E+00

      iter #   5 total cpu time :   561.8 secs   av.it.:  13.5
      thresh= 7.500E-07 alpha_mix =  0.700 |ddv_scf|^2 =  3.014E-12

     Pert. #  1: Fermi energy shift (Ry) =     0.0000E+00     0.0000E+00

      iter #   6 total cpu time :   564.6 secs   av.it.:  13.8
      thresh= 1.736E-07 alpha_mix =  0.700 |ddv_scf|^2 =  9.612E-13

     Pert. #  1: Fermi energy shift (Ry) =     0.0000E+00     0.0000E+00

      iter #   7 total cpu time :   567.5 secs   av.it.:  13.8
      thresh= 9.804E-08 alpha_mix =  0.700 |ddv_scf|^2 =  7.717E-14

     Pert. #  1: Fermi energy shift (Ry) =     0.0000E+00     0.0000E+00

      iter #   8 total cpu time :   570.3 secs   av.it.:  13.5
      thresh= 2.778E-08 alpha_mix =  0.700 |ddv_scf|^2 =  6.234E-16

     End of self-consistent calculation

     Convergence has been achieved 


     Representation #  29 mode #  29

     Self-consistent Calculation

     Pert. #  1: Fermi energy shift (Ry) =     0.0000E+00     0.0000E+00

      iter #   1 total cpu time :   572.7 secs   av.it.:   4.0
      thresh= 1.000E-02 alpha_mix =  0.700 |ddv_scf|^2 =  8.480E-10

     Pert. #  1: Fermi energy shift (Ry) =     0.0000E+00     0.0000E+00

      iter #   2 total cpu time :   575.6 secs   av.it.:  14.5
      thresh= 2.912E-06 alpha_mix =  0.700 |ddv_scf|^2 =  9.469E-10

     Pert. #  1: Fermi energy shift (Ry) =     0.0000E+00     0.0000E+00

      iter #   3 total cpu time :   578.4 secs   av.it.:  13.5
      thresh= 3.077E-06 alpha_mix =  0.700 |ddv_scf|^2 =  2.923E-11

     Pert. #  1: Fermi energy shift (Ry) =     0.0000E+00     0.0000E+00

      iter #   4 total cpu time :   581.1 secs   av.it.:  13.2
      thresh= 5.407E-07 alpha_mix =  0.700 |ddv_scf|^2 =  1.577E-12

     Pert. #  1: Fermi energy shift (Ry) =     0.0000E+00     0.0000E+00

      iter #   5 total cpu time :   583.9 secs   av.it.:  13.8
      thresh= 1.256E-07 alpha_mix =  0.700 |ddv_scf|^2 =  5.070E-13

     Pert. #  1: Fermi energy shift (Ry) =     0.0000E+00     0.0000E+00

      iter #   6 total cpu time :   586.7 secs   av.it.:  13.5
      thresh= 7.120E-08 alpha_mix =  0.700 |ddv_scf|^2 =  8.279E-15

     End of self-consistent calculation

     Convergence has been achieved 


     Representation #  30 mode #  30

     Self-consistent Calculation

     Pert. #  1: Fermi energy shift (Ry) =     0.0000E+00     0.0000E+00

      iter #   1 total cpu time :   589.2 secs   av.it.:   6.0
      thresh= 1.000E-02 alpha_mix =  0.700 |ddv_scf|^2 =  1.108E-07

     Pert. #  1: Fermi energy shift (Ry) =     0.0000E+00     0.0000E+00

      iter #   2 total cpu time :   592.0 secs   av.it.:  13.0
      thresh= 3.329E-05 alpha_mix =  0.700 |ddv_scf|^2 =  2.487E-08

     Pert. #  1: Fermi energy shift (Ry) =     0.0000E+00     0.0000E+00

      iter #   3 total cpu time :   594.7 secs   av.it.:  13.2
      thresh= 1.577E-05 alpha_mix =  0.700 |ddv_scf|^2 =  1.140E-09

     Pert. #  1: Fermi energy shift (Ry) =     0.0000E+00     0.0000E+00

      iter #   4 total cpu time :   597.5 secs   av.it.:  14.0
      thresh= 3.377E-06 alpha_mix =  0.700 |ddv_scf|^2 =  1.633E-10

     Pert. #  1: Fermi energy shift (Ry) =     0.0000E+00     0.0000E+00

      iter #   5 total cpu time :   600.2 secs   av.it.:  13.5
      thresh= 1.278E-06 alpha_mix =  0.700 |ddv_scf|^2 =  6.843E-12

     Pert. #  1: Fermi energy shift (Ry) =     0.0000E+00     0.0000E+00

      iter #   6 total cpu time :   603.0 secs   av.it.:  13.8
      thresh= 2.616E-07 alpha_mix =  0.700 |ddv_scf|^2 =  1.560E-12

     Pert. #  1: Fermi energy shift (Ry) =     0.0000E+00     0.0000E+00

      iter #   7 total cpu time :   605.8 secs   av.it.:  13.5
      thresh= 1.249E-07 alpha_mix =  0.700 |ddv_scf|^2 =  1.251E-13

     Pert. #  1: Fermi energy shift (Ry) =     0.0000E+00     0.0000E+00

      iter #   8 total cpu time :   608.6 secs   av.it.:  13.2
      thresh= 3.537E-08 alpha_mix =  0.700 |ddv_scf|^2 =  5.963E-16

     End of self-consistent calculation

     Convergence has been achieved 


     Representation #  31 mode #  31

     Self-consistent Calculation

     Pert. #  1: Fermi energy shift (Ry) =     0.0000E+00     0.0000E+00

      iter #   1 total cpu time :   610.9 secs   av.it.:   4.0
      thresh= 1.000E-02 alpha_mix =  0.700 |ddv_scf|^2 =  1.506E-09

     Pert. #  1: Fermi energy shift (Ry) =     0.0000E+00     0.0000E+00

      iter #   2 total cpu time :   613.7 secs   av.it.:  14.0
      thresh= 3.881E-06 alpha_mix =  0.700 |ddv_scf|^2 =  9.964E-10

     Pert. #  1: Fermi energy shift (Ry) =     0.0000E+00     0.0000E+00

      iter #   3 total cpu time :   616.5 secs   av.it.:  13.5
      thresh= 3.157E-06 alpha_mix =  0.700 |ddv_scf|^2 =  5.710E-11

     Pert. #  1: Fermi energy shift (Ry) =     0.0000E+00     0.0000E+00

      iter #   4 total cpu time :   619.3 secs   av.it.:  13.5
      thresh= 7.556E-07 alpha_mix =  0.700 |ddv_scf|^2 =  1.337E-12

     Pert. #  1: Fermi energy shift (Ry) =     0.0000E+00     0.0000E+00

      iter #   5 total cpu time :   622.1 secs   av.it.:  14.0
      thresh= 1.156E-07 alpha_mix =  0.700 |ddv_scf|^2 =  2.653E-13

     Pert. #  1: Fermi energy shift (Ry) =     0.0000E+00     0.0000E+00

      iter #   6 total cpu time :   624.9 secs   av.it.:  13.5
      thresh= 5.150E-08 alpha_mix =  0.700 |ddv_scf|^2 =  7.872E-15

     End of self-consistent calculation

     Convergence has been achieved 


     Representation #  32 mode #  32

     Self-consistent Calculation

     Pert. #  1: Fermi energy shift (Ry) =     0.0000E+00     0.0000E+00

      iter #   1 total cpu time :   627.2 secs   av.it.:   3.0
      thresh= 1.000E-02 alpha_mix =  0.700 |ddv_scf|^2 =  2.592E-10

     Pert. #  1: Fermi energy shift (Ry) =     0.0000E+00     0.0000E+00

      iter #   2 total cpu time :   630.0 secs   av.it.:  14.0
      thresh= 1.610E-06 alpha_mix =  0.700 |ddv_scf|^2 =  5.902E-11

     Pert. #  1: Fermi energy shift (Ry) =     0.0000E+00     0.0000E+00

      iter #   3 total cpu time :   632.9 secs   av.it.:  14.5
      thresh= 7.682E-07 alpha_mix =  0.700 |ddv_scf|^2 =  2.870E-11

     Pert. #  1: Fermi energy shift (Ry) =     0.0000E+00     0.0000E+00

      iter #   4 total cpu time :   635.6 secs   av.it.:  13.5
      thresh= 5.358E-07 alpha_mix =  0.700 |ddv_scf|^2 =  1.115E-12

     Pert. #  1: Fermi energy shift (Ry) =     0.0000E+00     0.0000E+00

      iter #   5 total cpu time :   638.4 secs   av.it.:  13.5
      thresh= 1.056E-07 alpha_mix =  0.700 |ddv_scf|^2 =  2.106E-13

     Pert. #  1: Fermi energy shift (Ry) =     0.0000E+00     0.0000E+00

      iter #   6 total cpu time :   641.2 secs   av.it.:  13.5
      thresh= 4.589E-08 alpha_mix =  0.700 |ddv_scf|^2 =  6.080E-15

     End of self-consistent calculation

     Convergence has been achieved 


     Representation #  33 mode #  33

     Self-consistent Calculation

     Pert. #  1: Fermi energy shift (Ry) =     0.0000E+00     0.0000E+00

      iter #   1 total cpu time :   643.7 secs   av.it.:   6.0
      thresh= 1.000E-02 alpha_mix =  0.700 |ddv_scf|^2 =  1.289E-07

     Pert. #  1: Fermi energy shift (Ry) =     0.0000E+00     0.0000E+00

      iter #   2 total cpu time :   646.4 secs   av.it.:  13.2
      thresh= 3.590E-05 alpha_mix =  0.700 |ddv_scf|^2 =  3.663E-08

     Pert. #  1: Fermi energy shift (Ry) =     0.0000E+00     0.0000E+00

      iter #   3 total cpu time :   649.1 secs   av.it.:  12.8
      thresh= 1.914E-05 alpha_mix =  0.700 |ddv_scf|^2 =  6.356E-10

     Pert. #  1: Fermi energy shift (Ry) =     0.0000E+00     0.0000E+00

      iter #   4 total cpu time :   651.9 secs   av.it.:  14.5
      thresh= 2.521E-06 alpha_mix =  0.700 |ddv_scf|^2 =  2.218E-10

     Pert. #  1: Fermi energy shift (Ry) =     0.0000E+00     0.0000E+00

      iter #   5 total cpu time :   654.7 secs   av.it.:  13.5
      thresh= 1.489E-06 alpha_mix =  0.700 |ddv_scf|^2 =  5.440E-12

     Pert. #  1: Fermi energy shift (Ry) =     0.0000E+00     0.0000E+00

      iter #   6 total cpu time :   657.5 secs   av.it.:  14.2
      thresh= 2.332E-07 alpha_mix =  0.700 |ddv_scf|^2 =  1.988E-12

     Pert. #  1: Fermi energy shift (Ry) =     0.0000E+00     0.0000E+00

      iter #   7 total cpu time :   660.3 secs   av.it.:  13.5
      thresh= 1.410E-07 alpha_mix =  0.700 |ddv_scf|^2 =  3.132E-14

     Pert. #  1: Fermi energy shift (Ry) =     0.0000E+00     0.0000E+00

      iter #   8 total cpu time :   663.0 secs   av.it.:  13.5
      thresh= 1.770E-08 alpha_mix =  0.700 |ddv_scf|^2 =  6.160E-16

     End of self-consistent calculation

     Convergence has been achieved 


     Representation #  34 mode #  34

     Self-consistent Calculation

     Pert. #  1: Fermi energy shift (Ry) =     0.0000E+00     0.0000E+00

      iter #   1 total cpu time :   665.6 secs   av.it.:   5.2
      thresh= 1.000E-02 alpha_mix =  0.700 |ddv_scf|^2 =  4.493E-08

     Pert. #  1: Fermi energy shift (Ry) =     0.0000E+00     0.0000E+00

      iter #   2 total cpu time :   669.0 secs   av.it.:  13.5
      thresh= 2.120E-05 alpha_mix =  0.700 |ddv_scf|^2 =  3.135E-09

     Pert. #  1: Fermi energy shift (Ry) =     0.0000E+00     0.0000E+00

      iter #   3 total cpu time :   671.6 secs   av.it.:  13.0
      thresh= 5.599E-06 alpha_mix =  0.700 |ddv_scf|^2 =  5.999E-11

     Pert. #  1: Fermi energy shift (Ry) =     0.0000E+00     0.0000E+00

      iter #   4 total cpu time :   674.5 secs   av.it.:  14.5
      thresh= 7.746E-07 alpha_mix =  0.700 |ddv_scf|^2 =  4.937E-11

     Pert. #  1: Fermi energy shift (Ry) =     0.0000E+00     0.0000E+00

      iter #   5 total cpu time :   677.3 secs   av.it.:  13.8
      thresh= 7.027E-07 alpha_mix =  0.700 |ddv_scf|^2 =  3.125E-12

     Pert. #  1: Fermi energy shift (Ry) =     0.0000E+00     0.0000E+00

      iter #   6 total cpu time :   680.1 secs   av.it.:  13.5
      thresh= 1.768E-07 alpha_mix =  0.700 |ddv_scf|^2 =  1.784E-13

     Pert. #  1: Fermi energy shift (Ry) =     0.0000E+00     0.0000E+00

      iter #   7 total cpu time :   682.9 secs   av.it.:  13.8
      thresh= 4.224E-08 alpha_mix =  0.700 |ddv_scf|^2 =  4.199E-14

     Pert. #  1: Fermi energy shift (Ry) =     0.0000E+00     0.0000E+00

      iter #   8 total cpu time :   685.7 secs   av.it.:  13.5
      thresh= 2.049E-08 alpha_mix =  0.700 |ddv_scf|^2 =  3.835E-16

     End of self-consistent calculation

     Convergence has been achieved 


     Representation #  35 mode #  35

     Self-consistent Calculation

     Pert. #  1: Fermi energy shift (Ry) =     0.0000E+00     0.0000E+00

      iter #   1 total cpu time :   688.0 secs   av.it.:   3.2
      thresh= 1.000E-02 alpha_mix =  0.700 |ddv_scf|^2 =  1.393E-09

     Pert. #  1: Fermi energy shift (Ry) =     0.0000E+00     0.0000E+00

      iter #   2 total cpu time :   690.7 secs   av.it.:  13.5
      thresh= 3.732E-06 alpha_mix =  0.700 |ddv_scf|^2 =  5.112E-10

     Pert. #  1: Fermi energy shift (Ry) =     0.0000E+00     0.0000E+00

      iter #   3 total cpu time :   693.5 secs   av.it.:  13.5
      thresh= 2.261E-06 alpha_mix =  0.700 |ddv_scf|^2 =  4.673E-11

     Pert. #  1: Fermi energy shift (Ry) =     0.0000E+00     0.0000E+00

      iter #   4 total cpu time :   696.2 secs   av.it.:  13.5
      thresh= 6.836E-07 alpha_mix =  0.700 |ddv_scf|^2 =  4.637E-13

     Pert. #  1: Fermi energy shift (Ry) =     0.0000E+00     0.0000E+00

      iter #   5 total cpu time :   699.0 secs   av.it.:  14.0
      thresh= 6.810E-08 alpha_mix =  0.700 |ddv_scf|^2 =  3.452E-14

     Pert. #  1: Fermi energy shift (Ry) =     0.0000E+00     0.0000E+00

      iter #   6 total cpu time :   701.9 secs   av.it.:  14.2
      thresh= 1.858E-08 alpha_mix =  0.700 |ddv_scf|^2 =  9.713E-15

     End of self-consistent calculation

     Convergence has been achieved 


     Representation #  36 mode #  36

     Self-consistent Calculation

     Pert. #  1: Fermi energy shift (Ry) =     0.0000E+00     0.0000E+00

      iter #   1 total cpu time :   705.2 secs   av.it.:   4.0
      thresh= 1.000E-02 alpha_mix =  0.700 |ddv_scf|^2 =  1.321E-09

     Pert. #  1: Fermi energy shift (Ry) =     0.0000E+00     0.0000E+00

      iter #   2 total cpu time :   708.1 secs   av.it.:  14.5
      thresh= 3.635E-06 alpha_mix =  0.700 |ddv_scf|^2 =  1.480E-09

     Pert. #  1: Fermi energy shift (Ry) =     0.0000E+00     0.0000E+00

      iter #   3 total cpu time :   710.9 secs   av.it.:  13.5
      thresh= 3.848E-06 alpha_mix =  0.700 |ddv_scf|^2 =  6.303E-11

     Pert. #  1: Fermi energy shift (Ry) =     0.0000E+00     0.0000E+00

      iter #   4 total cpu time :   713.6 secs   av.it.:  13.0
      thresh= 7.939E-07 alpha_mix =  0.700 |ddv_scf|^2 =  2.850E-12

     Pert. #  1: Fermi energy shift (Ry) =     0.0000E+00     0.0000E+00

      iter #   5 total cpu time :   716.4 secs   av.it.:  13.5
      thresh= 1.688E-07 alpha_mix =  0.700 |ddv_scf|^2 =  9.051E-13

     Pert. #  1: Fermi energy shift (Ry) =     0.0000E+00     0.0000E+00

      iter #   6 total cpu time :   719.2 secs   av.it.:  13.5
      thresh= 9.514E-08 alpha_mix =  0.700 |ddv_scf|^2 =  1.512E-14

     Pert. #  1: Fermi energy shift (Ry) =     0.0000E+00     0.0000E+00

      iter #   7 total cpu time :   721.9 secs   av.it.:  13.5
      thresh= 1.230E-08 alpha_mix =  0.700 |ddv_scf|^2 =  3.830E-16

     End of self-consistent calculation

     Convergence has been achieved 


     Representation #  37 modes #  37  38

     Self-consistent Calculation

     Pert. #  1: Fermi energy shift (Ry) =     0.0000E+00     0.0000E+00
     Pert. #  2: Fermi energy shift (Ry) =     0.0000E+00     0.0000E+00

      iter #   1 total cpu time :   725.6 secs   av.it.:   3.0
      thresh= 1.000E-02 alpha_mix =  0.700 |ddv_scf|^2 =  3.546E-11

     Pert. #  1: Fermi energy shift (Ry) =     0.0000E+00     0.0000E+00
     Pert. #  2: Fermi energy shift (Ry) =     0.0000E+00     0.0000E+00

      iter #   2 total cpu time :   731.3 secs   av.it.:  15.5
      thresh= 5.955E-07 alpha_mix =  0.700 |ddv_scf|^2 =  2.512E-12

     Pert. #  1: Fermi energy shift (Ry) =     0.0000E+00     0.0000E+00
     Pert. #  2: Fermi energy shift (Ry) =     0.0000E+00     0.0000E+00

      iter #   3 total cpu time :   737.0 secs   av.it.:  15.5
      thresh= 1.585E-07 alpha_mix =  0.700 |ddv_scf|^2 =  9.712E-13

     Pert. #  1: Fermi energy shift (Ry) =     0.0000E+00     0.0000E+00
     Pert. #  2: Fermi energy shift (Ry) =     0.0000E+00     0.0000E+00

      iter #   4 total cpu time :   742.6 secs   av.it.:  15.0
      thresh= 9.855E-08 alpha_mix =  0.700 |ddv_scf|^2 =  5.453E-14

     Pert. #  1: Fermi energy shift (Ry) =     0.0000E+00     0.0000E+00
     Pert. #  2: Fermi energy shift (Ry) =     0.0000E+00     0.0000E+00

      iter #   5 total cpu time :   748.4 secs   av.it.:  15.0
      thresh= 2.335E-08 alpha_mix =  0.700 |ddv_scf|^2 =  2.104E-15

     End of self-consistent calculation

     Convergence has been achieved 


     Representation #  38 modes #  39  40

     Self-consistent Calculation

     Pert. #  1: Fermi energy shift (Ry) =     0.0000E+00     0.0000E+00
     Pert. #  2: Fermi energy shift (Ry) =     0.0000E+00     0.0000E+00

      iter #   1 total cpu time :   752.3 secs   av.it.:   3.0
      thresh= 1.000E-02 alpha_mix =  0.700 |ddv_scf|^2 =  7.290E-11

     Pert. #  1: Fermi energy shift (Ry) =     0.0000E+00     0.0000E+00
     Pert. #  2: Fermi energy shift (Ry) =     0.0000E+00     0.0000E+00

      iter #   2 total cpu time :   757.9 secs   av.it.:  15.9
      thresh= 8.538E-07 alpha_mix =  0.700 |ddv_scf|^2 =  6.203E-11

     Pert. #  1: Fermi energy shift (Ry) =     0.0000E+00     0.0000E+00
     Pert. #  2: Fermi energy shift (Ry) =     0.0000E+00     0.0000E+00

      iter #   3 total cpu time :   763.4 secs   av.it.:  15.1
      thresh= 7.876E-07 alpha_mix =  0.700 |ddv_scf|^2 =  3.425E-12

     Pert. #  1: Fermi energy shift (Ry) =     0.0000E+00     0.0000E+00
     Pert. #  2: Fermi energy shift (Ry) =     0.0000E+00     0.0000E+00

      iter #   4 total cpu time :   768.7 secs   av.it.:  14.8
      thresh= 1.851E-07 alpha_mix =  0.700 |ddv_scf|^2 =  2.737E-13

     Pert. #  1: Fermi energy shift (Ry) =     0.0000E+00     0.0000E+00
     Pert. #  2: Fermi energy shift (Ry) =     0.0000E+00     0.0000E+00

      iter #   5 total cpu time :   774.2 secs   av.it.:  15.0
      thresh= 5.232E-08 alpha_mix =  0.700 |ddv_scf|^2 =  7.250E-14

     Pert. #  1: Fermi energy shift (Ry) =     0.0000E+00     0.0000E+00
     Pert. #  2: Fermi energy shift (Ry) =     0.0000E+00     0.0000E+00

      iter #   6 total cpu time :   779.7 secs   av.it.:  15.0
      thresh= 2.693E-08 alpha_mix =  0.700 |ddv_scf|^2 =  1.757E-15

     End of self-consistent calculation

     Convergence has been achieved 


     Representation #  39 modes #  41  42

     Self-consistent Calculation

     Pert. #  1: Fermi energy shift (Ry) =     0.0000E+00     0.0000E+00
     Pert. #  2: Fermi energy shift (Ry) =     0.0000E+00     0.0000E+00

      iter #   1 total cpu time :   783.5 secs   av.it.:   3.0
      thresh= 1.000E-02 alpha_mix =  0.700 |ddv_scf|^2 =  5.515E-11

     Pert. #  1: Fermi energy shift (Ry) =     0.0000E+00     0.0000E+00
     Pert. #  2: Fermi energy shift (Ry) =     0.0000E+00     0.0000E+00

      iter #   2 total cpu time :   788.9 secs   av.it.:  15.0
      thresh= 7.427E-07 alpha_mix =  0.700 |ddv_scf|^2 =  3.289E-12

     Pert. #  1: Fermi energy shift (Ry) =     0.0000E+00     0.0000E+00
     Pert. #  2: Fermi energy shift (Ry) =     0.0000E+00     0.0000E+00

      iter #   3 total cpu time :   794.5 secs   av.it.:  15.1
      thresh= 1.813E-07 alpha_mix =  0.700 |ddv_scf|^2 =  9.497E-13

     Pert. #  1: Fermi energy shift (Ry) =     0.0000E+00     0.0000E+00
     Pert. #  2: Fermi energy shift (Ry) =     0.0000E+00     0.0000E+00

      iter #   4 total cpu time :   800.0 secs   av.it.:  15.1
      thresh= 9.745E-08 alpha_mix =  0.700 |ddv_scf|^2 =  8.860E-14

     Pert. #  1: Fermi energy shift (Ry) =     0.0000E+00     0.0000E+00
     Pert. #  2: Fermi energy shift (Ry) =     0.0000E+00     0.0000E+00

      iter #   5 total cpu time :   805.5 secs   av.it.:  15.0
      thresh= 2.977E-08 alpha_mix =  0.700 |ddv_scf|^2 =  2.594E-15

     End of self-consistent calculation

     Convergence has been achieved 


     Representation #  40 modes #  43  44

     Self-consistent Calculation

     Pert. #  1: Fermi energy shift (Ry) =     0.0000E+00     0.0000E+00
     Pert. #  2: Fermi energy shift (Ry) =     0.0000E+00     0.0000E+00

      iter #   1 total cpu time :   809.4 secs   av.it.:   3.5
      thresh= 1.000E-02 alpha_mix =  0.700 |ddv_scf|^2 =  1.410E-10

     Pert. #  1: Fermi energy shift (Ry) =     0.0000E+00     0.0000E+00
     Pert. #  2: Fermi energy shift (Ry) =     0.0000E+00     0.0000E+00

      iter #   2 total cpu time :   815.0 secs   av.it.:  15.9
      thresh= 1.187E-06 alpha_mix =  0.700 |ddv_scf|^2 =  9.325E-11

     Pert. #  1: Fermi energy shift (Ry) =     0.0000E+00     0.0000E+00
     Pert. #  2: Fermi energy shift (Ry) =     0.0000E+00     0.0000E+00

      iter #   3 total cpu time :   820.5 secs   av.it.:  15.1
      thresh= 9.657E-07 alpha_mix =  0.700 |ddv_scf|^2 =  5.943E-12

     Pert. #  1: Fermi energy shift (Ry) =     0.0000E+00     0.0000E+00
     Pert. #  2: Fermi energy shift (Ry) =     0.0000E+00     0.0000E+00

      iter #   4 total cpu time :   826.0 secs   av.it.:  15.0
      thresh= 2.438E-07 alpha_mix =  0.700 |ddv_scf|^2 =  1.558E-13

     Pert. #  1: Fermi energy shift (Ry) =     0.0000E+00     0.0000E+00
     Pert. #  2: Fermi energy shift (Ry) =     0.0000E+00     0.0000E+00

      iter #   5 total cpu time :   831.5 secs   av.it.:  15.4
      thresh= 3.947E-08 alpha_mix =  0.700 |ddv_scf|^2 =  4.452E-14

     Pert. #  1: Fermi energy shift (Ry) =     0.0000E+00     0.0000E+00
     Pert. #  2: Fermi energy shift (Ry) =     0.0000E+00     0.0000E+00

      iter #   6 total cpu time :   837.0 secs   av.it.:  15.0
      thresh= 2.110E-08 alpha_mix =  0.700 |ddv_scf|^2 =  5.321E-16

     End of self-consistent calculation

     Convergence has been achieved 


     Representation #  41 modes #  45  46

     Self-consistent Calculation

     Pert. #  1: Fermi energy shift (Ry) =     0.0000E+00     0.0000E+00
     Pert. #  2: Fermi energy shift (Ry) =     0.0000E+00     0.0000E+00

      iter #   1 total cpu time :   841.5 secs   av.it.:   5.8
      thresh= 1.000E-02 alpha_mix =  0.700 |ddv_scf|^2 =  9.018E-09

     Pert. #  1: Fermi energy shift (Ry) =     0.0000E+00     0.0000E+00
     Pert. #  2: Fermi energy shift (Ry) =     0.0000E+00     0.0000E+00

      iter #   2 total cpu time :   847.1 secs   av.it.:  15.0
      thresh= 9.496E-06 alpha_mix =  0.700 |ddv_scf|^2 =  5.278E-10

     Pert. #  1: Fermi energy shift (Ry) =     0.0000E+00     0.0000E+00
     Pert. #  2: Fermi energy shift (Ry) =     0.0000E+00     0.0000E+00

      iter #   3 total cpu time :   852.6 secs   av.it.:  15.0
      thresh= 2.297E-06 alpha_mix =  0.700 |ddv_scf|^2 =  7.409E-11

     Pert. #  1: Fermi energy shift (Ry) =     0.0000E+00     0.0000E+00
     Pert. #  2: Fermi energy shift (Ry) =     0.0000E+00     0.0000E+00

      iter #   4 total cpu time :   858.2 secs   av.it.:  15.2
      thresh= 8.608E-07 alpha_mix =  0.700 |ddv_scf|^2 =  8.672E-12

     Pert. #  1: Fermi energy shift (Ry) =     0.0000E+00     0.0000E+00
     Pert. #  2: Fermi energy shift (Ry) =     0.0000E+00     0.0000E+00

      iter #   5 total cpu time :   863.8 secs   av.it.:  15.0
      thresh= 2.945E-07 alpha_mix =  0.700 |ddv_scf|^2 =  1.563E-13

     Pert. #  1: Fermi energy shift (Ry) =     0.0000E+00     0.0000E+00
     Pert. #  2: Fermi energy shift (Ry) =     0.0000E+00     0.0000E+00

      iter #   6 total cpu time :   869.4 secs   av.it.:  15.5
      thresh= 3.953E-08 alpha_mix =  0.700 |ddv_scf|^2 =  5.156E-14

     Pert. #  1: Fermi energy shift (Ry) =     0.0000E+00     0.0000E+00
     Pert. #  2: Fermi energy shift (Ry) =     0.0000E+00     0.0000E+00

      iter #   7 total cpu time :   875.0 secs   av.it.:  15.0
      thresh= 2.271E-08 alpha_mix =  0.700 |ddv_scf|^2 =  4.709E-15

     End of self-consistent calculation

     Convergence has been achieved 


     Representation #  42 modes #  47  48

     Self-consistent Calculation

     Pert. #  1: Fermi energy shift (Ry) =     0.0000E+00     0.0000E+00
     Pert. #  2: Fermi energy shift (Ry) =     0.0000E+00     0.0000E+00

      iter #   1 total cpu time :   879.4 secs   av.it.:   5.8
      thresh= 1.000E-02 alpha_mix =  0.700 |ddv_scf|^2 =  9.996E-09

     Pert. #  1: Fermi energy shift (Ry) =     0.0000E+00     0.0000E+00
     Pert. #  2: Fermi energy shift (Ry) =     0.0000E+00     0.0000E+00

      iter #   2 total cpu time :   884.9 secs   av.it.:  15.0
      thresh= 9.998E-06 alpha_mix =  0.700 |ddv_scf|^2 =  9.123E-10

     Pert. #  1: Fermi energy shift (Ry) =     0.0000E+00     0.0000E+00
     Pert. #  2: Fermi energy shift (Ry) =     0.0000E+00     0.0000E+00

      iter #   3 total cpu time :   890.3 secs   av.it.:  15.0
      thresh= 3.021E-06 alpha_mix =  0.700 |ddv_scf|^2 =  1.172E-10

     Pert. #  1: Fermi energy shift (Ry) =     0.0000E+00     0.0000E+00
     Pert. #  2: Fermi energy shift (Ry) =     0.0000E+00     0.0000E+00

      iter #   4 total cpu time :   895.9 secs   av.it.:  15.1
      thresh= 1.082E-06 alpha_mix =  0.700 |ddv_scf|^2 =  9.986E-12

     Pert. #  1: Fermi energy shift (Ry) =     0.0000E+00     0.0000E+00
     Pert. #  2: Fermi energy shift (Ry) =     0.0000E+00     0.0000E+00

      iter #   5 total cpu time :   901.4 secs   av.it.:  15.0
      thresh= 3.160E-07 alpha_mix =  0.700 |ddv_scf|^2 =  1.180E-13

     Pert. #  1: Fermi energy shift (Ry) =     0.0000E+00     0.0000E+00
     Pert. #  2: Fermi energy shift (Ry) =     0.0000E+00     0.0000E+00

      iter #   6 total cpu time :   906.8 secs   av.it.:  15.0
      thresh= 3.436E-08 alpha_mix =  0.700 |ddv_scf|^2 =  1.328E-14

     Pert. #  1: Fermi energy shift (Ry) =     0.0000E+00     0.0000E+00
     Pert. #  2: Fermi energy shift (Ry) =     0.0000E+00     0.0000E+00

      iter #   7 total cpu time :   912.4 secs   av.it.:  16.0
      thresh= 1.152E-08 alpha_mix =  0.700 |ddv_scf|^2 =  9.321E-15

     End of self-consistent calculation

     Convergence has been achieved 


     Representation #  43 modes #  49  50

     Self-consistent Calculation

     Pert. #  1: Fermi energy shift (Ry) =     0.0000E+00     0.0000E+00
     Pert. #  2: Fermi energy shift (Ry) =     0.0000E+00     0.0000E+00

      iter #   1 total cpu time :   916.4 secs   av.it.:   3.0
      thresh= 1.000E-02 alpha_mix =  0.700 |ddv_scf|^2 =  7.227E-11

     Pert. #  1: Fermi energy shift (Ry) =     0.0000E+00     0.0000E+00
     Pert. #  2: Fermi energy shift (Ry) =     0.0000E+00     0.0000E+00

      iter #   2 total cpu time :   922.0 secs   av.it.:  16.0
      thresh= 8.501E-07 alpha_mix =  0.700 |ddv_scf|^2 =  4.738E-11

     Pert. #  1: Fermi energy shift (Ry) =     0.0000E+00     0.0000E+00
     Pert. #  2: Fermi energy shift (Ry) =     0.0000E+00     0.0000E+00

      iter #   3 total cpu time :   927.5 secs   av.it.:  15.1
      thresh= 6.883E-07 alpha_mix =  0.700 |ddv_scf|^2 =  3.836E-12

     Pert. #  1: Fermi energy shift (Ry) =     0.0000E+00     0.0000E+00
     Pert. #  2: Fermi energy shift (Ry) =     0.0000E+00     0.0000E+00

      iter #   4 total cpu time :   932.9 secs   av.it.:  14.9
      thresh= 1.959E-07 alpha_mix =  0.700 |ddv_scf|^2 =  1.539E-13

     Pert. #  1: Fermi energy shift (Ry) =     0.0000E+00     0.0000E+00
     Pert. #  2: Fermi energy shift (Ry) =     0.0000E+00     0.0000E+00

      iter #   5 total cpu time :   938.4 secs   av.it.:  15.5
      thresh= 3.924E-08 alpha_mix =  0.700 |ddv_scf|^2 =  5.320E-14

     Pert. #  1: Fermi energy shift (Ry) =     0.0000E+00     0.0000E+00
     Pert. #  2: Fermi energy shift (Ry) =     0.0000E+00     0.0000E+00

      iter #   6 total cpu time :   943.9 secs   av.it.:  15.0
      thresh= 2.307E-08 alpha_mix =  0.700 |ddv_scf|^2 =  1.445E-15

     End of self-consistent calculation

     Convergence has been achieved 


     Representation #  44 modes #  51  52

     Self-consistent Calculation

     Pert. #  1: Fermi energy shift (Ry) =     0.0000E+00     0.0000E+00
     Pert. #  2: Fermi energy shift (Ry) =     0.0000E+00     0.0000E+00

      iter #   1 total cpu time :   948.3 secs   av.it.:   6.0
      thresh= 1.000E-02 alpha_mix =  0.700 |ddv_scf|^2 =  1.161E-08

     Pert. #  1: Fermi energy shift (Ry) =     0.0000E+00     0.0000E+00
     Pert. #  2: Fermi energy shift (Ry) =     0.0000E+00     0.0000E+00

      iter #   2 total cpu time :   953.8 secs   av.it.:  15.0
[...]
     freq (   24) =       5.960134 [THz] =     198.808658 [cm-1]
     freq (   25) =       7.296911 [THz] =     243.398758 [cm-1]
     freq (   26) =       7.296911 [THz] =     243.398758 [cm-1]
     freq (   27) =       8.133584 [THz] =     271.307143 [cm-1]
     freq (   28) =       8.133584 [THz] =     271.307143 [cm-1]
     freq (   29) =       8.143316 [THz] =     271.631795 [cm-1]
     freq (   30) =       8.143316 [THz] =     271.631795 [cm-1]
     freq (   31) =       8.601226 [THz] =     286.906027 [cm-1]
     freq (   32) =       8.601226 [THz] =     286.906027 [cm-1]
     freq (   33) =       9.065418 [THz] =     302.389788 [cm-1]
     freq (   34) =       9.065418 [THz] =     302.389788 [cm-1]
     freq (   35) =       9.244761 [THz] =     308.372043 [cm-1]
     freq (   36) =       9.244761 [THz] =     308.372043 [cm-1]
     freq (   37) =      20.526761 [THz] =     684.699058 [cm-1]
     freq (   38) =      20.526761 [THz] =     684.699058 [cm-1]
     freq (   39) =      20.744586 [THz] =     691.964901 [cm-1]
     freq (   40) =      20.744586 [THz] =     691.964901 [cm-1]
     freq (   41) =      21.177823 [THz] =     706.416139 [cm-1]
     freq (   42) =      21.177823 [THz] =     706.416139 [cm-1]
     freq (   43) =      22.387949 [THz] =     746.781601 [cm-1]
     freq (   44) =      22.387949 [THz] =     746.781601 [cm-1]
     freq (   45) =      22.474333 [THz] =     749.663063 [cm-1]
     freq (   46) =      22.474333 [THz] =     749.663063 [cm-1]
     freq (   47) =      22.929269 [THz] =     764.838090 [cm-1]
     freq (   48) =      22.929269 [THz] =     764.838090 [cm-1]
     freq (   49) =      23.222988 [THz] =     774.635498 [cm-1]
     freq (   50) =      23.222988 [THz] =     774.635498 [cm-1]
     freq (   51) =      23.423343 [THz] =     781.318634 [cm-1]
     freq (   52) =      23.423343 [THz] =     781.318634 [cm-1]
     freq (   53) =      23.624391 [THz] =     788.024868 [cm-1]
     freq (   54) =      23.624391 [THz] =     788.024868 [cm-1]
     freq (   55) =      27.490271 [THz] =     916.976752 [cm-1]
     freq (   56) =      27.490271 [THz] =     916.976752 [cm-1]
     freq (   57) =      27.496947 [THz] =     917.199438 [cm-1]
     freq (   58) =      27.496947 [THz] =     917.199438 [cm-1]
     freq (   59) =      28.492500 [THz] =     950.407507 [cm-1]
     freq (   60) =      28.492500 [THz] =     950.407507 [cm-1]
     freq (   61) =      28.574955 [THz] =     953.157903 [cm-1]
     freq (   62) =      28.574955 [THz] =     953.157903 [cm-1]
     freq (   63) =      29.915225 [THz] =     997.864497 [cm-1]
     freq (   64) =      29.915225 [THz] =     997.864497 [cm-1]
     freq (   65) =      30.688357 [THz] =    1023.653397 [cm-1]
     freq (   66) =      30.688357 [THz] =    1023.653397 [cm-1]
     freq (   67) =      31.758755 [THz] =    1059.358030 [cm-1]
     freq (   68) =      31.758755 [THz] =    1059.358030 [cm-1]
     freq (   69) =      31.865897 [THz] =    1062.931898 [cm-1]
     freq (   70) =      31.865897 [THz] =    1062.931898 [cm-1]
     freq (   71) =      32.021911 [THz] =    1068.135979 [cm-1]
     freq (   72) =      32.021911 [THz] =    1068.135979 [cm-1]
     freq (   73) =      48.398873 [THz] =    1614.412624 [cm-1]
     freq (   74) =      48.398873 [THz] =    1614.412624 [cm-1]
     freq (   75) =      48.416867 [THz] =    1615.012849 [cm-1]
     freq (   76) =      48.416867 [THz] =    1615.012849 [cm-1]
     freq (   77) =      48.564819 [THz] =    1619.947999 [cm-1]
     freq (   78) =      48.564819 [THz] =    1619.947999 [cm-1]
     freq (   79) =      49.339855 [THz] =    1645.800418 [cm-1]
     freq (   80) =      49.339855 [THz] =    1645.800418 [cm-1]
     freq (   81) =      49.425631 [THz] =    1648.661598 [cm-1]
     freq (   82) =      49.425631 [THz] =    1648.661598 [cm-1]
     freq (   83) =      49.769882 [THz] =    1660.144573 [cm-1]
     freq (   84) =      49.769882 [THz] =    1660.144573 [cm-1]
     freq (   85) =      89.991019 [THz] =    3001.777296 [cm-1]
     freq (   86) =      89.991019 [THz] =    3001.777296 [cm-1]
     freq (   87) =      90.375856 [THz] =    3014.614080 [cm-1]
     freq (   88) =      90.375856 [THz] =    3014.614080 [cm-1]
     freq (   89) =      91.004090 [THz] =    3035.569693 [cm-1]
     freq (   90) =      91.004090 [THz] =    3035.569693 [cm-1]
     freq (   91) =      91.615151 [THz] =    3055.952509 [cm-1]
     freq (   92) =      91.615151 [THz] =    3055.952509 [cm-1]
     freq (   93) =      91.650912 [THz] =    3057.145352 [cm-1]
     freq (   94) =      91.650912 [THz] =    3057.145352 [cm-1]
     freq (   95) =      92.525954 [THz] =    3086.333627 [cm-1]
     freq (   96) =      92.525954 [THz] =    3086.333627 [cm-1]
     freq (   97) =      95.468644 [THz] =    3184.491196 [cm-1]
     freq (   98) =      95.468644 [THz] =    3184.491196 [cm-1]
     freq (   99) =      96.580107 [THz] =    3221.565592 [cm-1]
     freq (  100) =      96.580107 [THz] =    3221.565592 [cm-1]
     freq (  101) =      96.717526 [THz] =    3226.149400 [cm-1]
     freq (  102) =      96.717526 [THz] =    3226.149400 [cm-1]
     freq (  103) =      97.378656 [THz] =    3248.202344 [cm-1]
     freq (  104) =      97.378656 [THz] =    3248.202344 [cm-1]
     freq (  105) =      97.700366 [THz] =    3258.933428 [cm-1]
     freq (  106) =      97.700366 [THz] =    3258.933428 [cm-1]
     freq (  107) =      97.771939 [THz] =    3261.320831 [cm-1]
     freq (  108) =      97.771939 [THz] =    3261.320831 [cm-1]
 **************************************************************************

     Mode symmetry, C_s (m)     point group:

     freq (   1-   1) =         78.5  [cm-1]   --> A''                
     freq (   2-   2) =         78.5  [cm-1]   --> A''                
     freq (   3-   3) =         85.2  [cm-1]   --> A'                 
     freq (   4-   4) =         85.2  [cm-1]   --> A'                 
     freq (   5-   5) =         89.9  [cm-1]   --> A''                
     freq (   6-   6) =         89.9  [cm-1]   --> A''                
     freq (   7-   7) =         90.5  [cm-1]   --> A'                 
     freq (   8-   8) =         90.5  [cm-1]   --> A'                 
     freq (   9-   9) =         97.8  [cm-1]   --> A''                
     freq (  10-  10) =         97.8  [cm-1]   --> A''                
     freq (  11-  11) =        101.3  [cm-1]   --> A'                 
     freq (  12-  12) =        101.3  [cm-1]   --> A'                 
     freq (  13-  13) =        129.5  [cm-1]   --> A'                 
     freq (  14-  14) =        129.5  [cm-1]   --> A'                 
     freq (  15-  15) =        150.7  [cm-1]   --> A''                
     freq (  16-  16) =        150.7  [cm-1]   --> A''                
     freq (  17-  17) =        156.8  [cm-1]   --> A'                 
     freq (  18-  18) =        156.8  [cm-1]   --> A'                 
     freq (  19-  19) =        194.1  [cm-1]   --> A''                
     freq (  20-  20) =        194.1  [cm-1]   --> A''                
     freq (  21-  21) =        198.5  [cm-1]   --> A''                
     freq (  22-  22) =        198.5  [cm-1]   --> A''                
     freq (  23-  23) =        198.8  [cm-1]   --> A'                 
     freq (  24-  24) =        198.8  [cm-1]   --> A'                 
     freq (  25-  25) =        243.4  [cm-1]   --> A'                 
     freq (  26-  26) =        243.4  [cm-1]   --> A'                 
     freq (  27-  27) =        271.3  [cm-1]   --> A''                
     freq (  28-  28) =        271.3  [cm-1]   --> A''                
     freq (  29-  29) =        271.6  [cm-1]   --> A'                 
     freq (  30-  30) =        271.6  [cm-1]   --> A'                 
     freq (  31-  31) =        286.9  [cm-1]   --> A'                 
     freq (  32-  32) =        286.9  [cm-1]   --> A'                 
     freq (  33-  33) =        302.4  [cm-1]   --> A''                
     freq (  34-  34) =        302.4  [cm-1]   --> A''                
     freq (  35-  35) =        308.4  [cm-1]   --> A'                 
     freq (  36-  36) =        308.4  [cm-1]   --> A'                 
     freq (  37-  37) =        684.7  [cm-1]   --> A''                
     freq (  38-  38) =        684.7  [cm-1]   --> A''                
     freq (  39-  39) =        692.0  [cm-1]   --> A'                 
     freq (  40-  40) =        692.0  [cm-1]   --> A'                 
     freq (  41-  41) =        706.4  [cm-1]   --> A''                
     freq (  42-  42) =        706.4  [cm-1]   --> A''                
     freq (  43-  43) =        746.8  [cm-1]   --> A'                 
     freq (  44-  44) =        746.8  [cm-1]   --> A'                 
     freq (  45-  45) =        749.7  [cm-1]   --> A''                
     freq (  46-  46) =        749.7  [cm-1]   --> A''                
     freq (  47-  47) =        764.8  [cm-1]   --> A'                 
     freq (  48-  48) =        764.8  [cm-1]   --> A'                 
     freq (  49-  49) =        774.6  [cm-1]   --> A''                
     freq (  50-  50) =        774.6  [cm-1]   --> A''                
     freq (  51-  51) =        781.3  [cm-1]   --> A'                 
     freq (  52-  52) =        781.3  [cm-1]   --> A'                 
     freq (  53-  53) =        788.0  [cm-1]   --> A''                
     freq (  54-  54) =        788.0  [cm-1]   --> A''                
     freq (  55-  55) =        917.0  [cm-1]   --> A'                 
     freq (  56-  56) =        917.0  [cm-1]   --> A'                 
     freq (  57-  57) =        917.2  [cm-1]   --> A''                
     freq (  58-  58) =        917.2  [cm-1]   --> A''                
     freq (  59-  59) =        950.4  [cm-1]   --> A'                 
     freq (  60-  60) =        950.4  [cm-1]   --> A'                 
     freq (  61-  61) =        953.2  [cm-1]   --> A''                
     freq (  62-  62) =        953.2  [cm-1]   --> A''                
     freq (  63-  63) =        997.9  [cm-1]   --> A'                 
     freq (  64-  64) =        997.9  [cm-1]   --> A'                 
     freq (  65-  65) =       1023.7  [cm-1]   --> A''                
     freq (  66-  66) =       1023.7  [cm-1]   --> A''                
     freq (  67-  67) =       1059.4  [cm-1]   --> A''                
     freq (  68-  68) =       1059.4  [cm-1]   --> A''                
     freq (  69-  69) =       1062.9  [cm-1]   --> A'                 
     freq (  70-  70) =       1062.9  [cm-1]   --> A'                 
     freq (  71-  71) =       1068.1  [cm-1]   --> A''                
     freq (  72-  72) =       1068.1  [cm-1]   --> A''                
     freq (  73-  73) =       1614.4  [cm-1]   --> A''                
     freq (  74-  74) =       1614.4  [cm-1]   --> A''                
     freq (  75-  75) =       1615.0  [cm-1]   --> A'                 
     freq (  76-  76) =       1615.0  [cm-1]   --> A'                 
     freq (  77-  77) =       1619.9  [cm-1]   --> A'                 
     freq (  78-  78) =       1619.9  [cm-1]   --> A'                 
     freq (  79-  79) =       1645.8  [cm-1]   --> A'                 
     freq (  80-  80) =       1645.8  [cm-1]   --> A'                 
     freq (  81-  81) =       1648.7  [cm-1]   --> A''                
     freq (  82-  82) =       1648.7  [cm-1]   --> A''                
     freq (  83-  83) =       1660.1  [cm-1]   --> A'                 
     freq (  84-  84) =       1660.1  [cm-1]   --> A'                 
     freq (  85-  85) =       3001.8  [cm-1]   --> A'                 
     freq (  86-  86) =       3001.8  [cm-1]   --> A'                 
     freq (  87-  87) =       3014.6  [cm-1]   --> A''                
     freq (  88-  88) =       3014.6  [cm-1]   --> A''                
     freq (  89-  89) =       3035.6  [cm-1]   --> A'                 
     freq (  90-  90) =       3035.6  [cm-1]   --> A'                 
     freq (  91-  91) =       3056.0  [cm-1]   --> A''                
     freq (  92-  92) =       3056.0  [cm-1]   --> A''                
     freq (  93-  93) =       3057.1  [cm-1]   --> A'                 
     freq (  94-  94) =       3057.1  [cm-1]   --> A'                 
     freq (  95-  95) =       3086.3  [cm-1]   --> A''                
     freq (  96-  96) =       3086.3  [cm-1]   --> A''                
     freq (  97-  97) =       3184.5  [cm-1]   --> A'                 
     freq (  98-  98) =       3184.5  [cm-1]   --> A'                 
     freq (  99-  99) =       3221.6  [cm-1]   --> A''                
     freq ( 100- 100) =       3221.6  [cm-1]   --> A''                
     freq ( 101- 101) =       3226.1  [cm-1]   --> A'                 
     freq ( 102- 102) =       3226.1  [cm-1]   --> A'                 
     freq ( 103- 103) =       3248.2  [cm-1]   --> A'                 
     freq ( 104- 104) =       3248.2  [cm-1]   --> A'                 
     freq ( 105- 105) =       3258.9  [cm-1]   --> A''                
     freq ( 106- 106) =       3258.9  [cm-1]   --> A''                
     freq ( 107- 107) =       3261.3  [cm-1]   --> A'                 
     freq ( 108- 108) =       3261.3  [cm-1]   --> A'                 

     init_run     :      4.35s CPU      5.15s WALL (      11 calls)
     electrons    :    105.58s CPU    120.09s WALL (      11 calls)

     Called by init_run:
     wfcinit      :      0.00s CPU      0.04s WALL (      11 calls)
     potinit      :      0.88s CPU      1.32s WALL (      11 calls)
     hinit0       :      0.88s CPU      1.01s WALL (      11 calls)

     Called by electrons:
     c_bands      :    105.57s CPU    120.07s WALL (      11 calls)
     v_of_rho     :      0.32s CPU      0.42s WALL (      12 calls)
     newd         :      0.27s CPU      0.31s WALL (      12 calls)
     PAW_pot      :      0.55s CPU      0.56s WALL (      12 calls)

     Called by c_bands:
     init_us_2    :     21.06s CPU     28.35s WALL (   54764 calls)
     init_us_2:cp :     20.90s CPU     28.18s WALL (   54764 calls)
     cegterg      :    101.28s CPU    114.00s WALL (     316 calls)

     Called by *egterg:
     cdiaghg      :     37.01s CPU     38.04s WALL (    5294 calls)
     h_psi        :  10951.19s CPU  13898.51s WALL (  956420 calls)
     s_psi        :   1439.98s CPU   1561.09s WALL ( 1954924 calls)
     g_psi        :      0.14s CPU      0.14s WALL (    5170 calls)

     Called by h_psi:
     h_psi:calbec :   1168.69s CPU   1416.64s WALL (  956420 calls)
     vloc_psi     :   9002.32s CPU  11601.28s WALL (  956420 calls)
     add_vuspsi   :    739.96s CPU    837.72s WALL (  956420 calls)

     General routines
     calbec       :   2191.54s CPU   2566.76s WALL ( 2039454 calls)
     fft          :    321.32s CPU    437.96s WALL (  293581 calls)
     ffts         :     60.13s CPU    222.48s WALL (  158451 calls)
     fftw         :   8667.37s CPU  11433.01s WALL (71795146 calls)
     interpolate  :     32.21s CPU     43.93s WALL (   18591 calls)
     davcio       :     81.99s CPU    181.00s WALL (  418486 calls)

     Parallel routines

     PHONON       :      6h26m CPU      8h32m WALL

     INITIALIZATION: 
     phq_setup    :      1.19s CPU      1.48s WALL (      12 calls)
     phq_init     :    239.03s CPU    267.96s WALL (      12 calls)

     phq_init     :    239.03s CPU    267.96s WALL (      12 calls)
     set_drhoc    :      2.90s CPU      2.93s WALL (      36 calls)
     init_vloc    :      0.35s CPU      0.36s WALL (      12 calls)
     init_us_1    :      0.13s CPU      0.21s WALL (      12 calls)
     init_us_2    :     21.06s CPU     28.35s WALL (   54764 calls)
     newd         :      0.27s CPU      0.31s WALL (      12 calls)
     dvanqq       :     64.15s CPU     67.99s WALL (      12 calls)
     drho         :    147.92s CPU    172.31s WALL (      12 calls)
     drhous       :     79.84s CPU     96.53s WALL (      12 calls)
     nldyntot     :      5.98s CPU      6.07s WALL (      12 calls)

     DYNAMICAL MATRIX:
     dynmat0      :     24.72s CPU     25.31s WALL (      12 calls)
     dynmat_us    :      3.23s CPU      3.44s WALL (      12 calls)
     addusdynmat  :      0.04s CPU      0.04s WALL (      12 calls)
     d2ionq       :     18.65s CPU     18.78s WALL (      12 calls)
     dynmatcc     :      2.62s CPU      2.76s WALL (      12 calls)
     phqscf       :  22817.10s CPU  30335.41s WALL (      12 calls)
     dynmatrix    :      1.32s CPU      1.58s WALL (      12 calls)

     phqscf       :  22817.10s CPU  30335.41s WALL (      12 calls)
     solve_linter :  22699.50s CPU  30126.30s WALL (    1089 calls)
     sth_kernel   :  16298.83s CPU  20225.44s WALL (    7320 calls)
     h_prec       :     11.15s CPU     17.57s WALL (   41744 calls)
     apply_dpot_b :    475.71s CPU    666.83s WALL (   40566 calls)
     ortho        :    200.63s CPU    222.14s WALL (   47694 calls)
     cgsolve      :  14794.34s CPU  18107.08s WALL (   47694 calls)
     incdrhoscf   :    640.54s CPU    989.68s WALL (   47694 calls)
                                        0.00s GPU  (   47694 calls)
     addusddens   :    380.59s CPU    394.93s WALL (    8409 calls)
     dv_of_drho   :    207.38s CPU    307.04s WALL (    8600 calls)
     mix_pot      :     68.96s CPU    344.14s WALL (    7320 calls)
     ef_shift     :      1.19s CPU      1.78s WALL (     427 calls)
     ef_shift_wfc :      0.09s CPU      0.26s WALL (      72 calls)
     localdos     :      6.64s CPU      7.93s WALL (      72 calls)
     drhodv       :     98.65s CPU    114.95s WALL (    1089 calls)
     psymdvscf    :   1508.50s CPU   1968.67s WALL (    7320 calls)
     newdq        :    409.17s CPU    427.56s WALL (    7320 calls)
     adddvscf     :     94.81s CPU    108.11s WALL (   40566 calls)
     drhodvus     :     15.76s CPU     64.95s WALL (    1089 calls)

     dvqpsi_us    :    351.55s CPU    546.61s WALL (    7128 calls)
                                        0.00s GPU  (    7128 calls)
     dvqpsi_us_on :    227.77s CPU    230.75s WALL (    7128 calls)

     add_vuspsi   :    739.96s CPU    837.72s WALL (  956420 calls)
     addusdbec    :     87.14s CPU    105.49s WALL (   54822 calls)

     drhodvus     :     15.76s CPU     64.95s WALL (    1089 calls)

      General routines
     calbec       :   2191.54s CPU   2566.76s WALL ( 2039454 calls)
     fft          :    321.32s CPU    437.96s WALL (  293581 calls)
     ffts         :     60.13s CPU    222.48s WALL (  158451 calls)
     fftw         :   8667.37s CPU  11433.01s WALL (71795146 calls)
     davcio       :     81.99s CPU    181.00s WALL (  418486 calls)
     write_rec    :     32.01s CPU    719.26s WALL (    8409 calls)

      Additional routines
     ch_psi       :  14092.42s CPU  17335.07s WALL (  950810 calls)
     last         :   2326.26s CPU   2568.20s WALL (  950810 calls)
     Hesh         :     51.15s CPU     55.01s WALL (  950810 calls)
     ch_psi_all_k :   2268.60s CPU   2508.59s WALL (  950810 calls)
                                        0.00s GPU  (  950810 calls)
     ch_psi_calbe :    824.44s CPU    916.59s WALL (  950810 calls)
                                        0.00s GPU  (  950810 calls)
     h_psi_bgrp   :  10953.29s CPU  13900.32s WALL (  956420 calls)
     h_psi        :  10951.19s CPU  13898.51s WALL (  956420 calls)
     h_psi:pot    :  10915.54s CPU  13859.81s WALL (  956420 calls)
     h_psi:calbec :   1168.69s CPU   1416.64s WALL (  956420 calls)
     s_psi_bgrp   :   1508.86s CPU   1637.01s WALL ( 1954924 calls)
     s_psi        :   1439.98s CPU   1561.09s WALL ( 1954924 calls)


     PHONON       :      6h26m CPU      8h32m WALL


   This run was terminated on:  21:13: 9  11Oct2024            

=------------------------------------------------------------------------------=
   JOB DONE.
=------------------------------------------------------------------------------=
