
     Program PWSCF v.7.2 starts on 11Oct2024 at 12:40:38 

     This program is part of the open-source Quantum ESPRESSO suite
     for quantum simulation of materials; please cite
         "P. Giannozzi et al., J. Phys.:Condens. Matter 21 395502 (2009);
         "P. Giannozzi et al., J. Phys.:Condens. Matter 29 465901 (2017);
         "P. Giannozzi et al., J. Chem. Phys. 152 154105 (2020);
          URL http://www.quantum-espresso.org", 
     in publications or presentations arising from this work. More details at
     http://www.quantum-espresso.org/quote

     Parallel version (MPI & OpenMP), running on      32 processor cores
     Number of MPI processes:                32
     Threads/MPI process:                     1

     MPI processes distributed on     1 nodes
     185676 MiB available memory on the printing compute node when the environment starts

     Reading input from pw.in

     Current dimensions of program PWSCF are:
     Max number of different atomic species (ntypx) = 10
     Max number of k-points (npk) =  40000
     Max angular momentum in pseudopotentials (lmaxx) =  4
     file O.pbesol-n-kjpaw_psl.0.1.UPF: wavefunction(s)  2P renormalized
     Message from routine setup:
     using ibrav=0 with symmetry is DISCOURAGED, use correct ibrav instead

     R & G space division:  proc/nbgrp/npool/nimage =      32
     Subspace diagonalization in iterative solution of the eigenvalue problem:
     a serial algorithm will be used


     Parallelization info
     --------------------
     sticks:   dense  smooth     PW     G-vecs:    dense   smooth      PW
     Min         225      94     25                14597     3922     561
     Max         226      95     26                14602     3926     566
     Sum        7231    3013    823               467251   125607   18051

     Using Slab Decomposition



     bravais-lattice index     =            0
     lattice parameter (alat)  =      14.7777  a.u.
     unit-cell volume          =    2630.3804 (a.u.)^3
     number of atoms/cell      =           36
     number of atomic types    =            2
     number of electrons       =        96.00
     number of Kohn-Sham states=           58
     kinetic-energy cutoff     =      50.0000  Ry
     charge density cutoff     =     480.0000  Ry
     scf convergence threshold =      7.2E-09
     mixing beta               =       0.4000
     number of iterations used =            8  plain     mixing
     Exchange-correlation= SLA  PW   PSX  PSC
                           (   1   4  10   8   0   0   0)

     celldm(1)=  14.777658  celldm(2)=   0.000000  celldm(3)=   0.000000
     celldm(4)=   0.000000  celldm(5)=   0.000000  celldm(6)=   0.000000

     crystal axes: (cart. coord. in units of alat)
               a(1) = (   1.000000   0.000000   0.000000 )  
               a(2) = (  -0.500000   0.866025   0.000000 )  
               a(3) = (   0.000000   0.000000   0.941176 )  

     reciprocal axes: (cart. coord. in units 2 pi/alat)
               b(1) = (  1.000000  0.577350 -0.000000 )  
               b(2) = (  0.000000  1.154701  0.000000 )  
               b(3) = (  0.000000 -0.000000  1.062500 )  


     PseudoPot. # 1 for H  read from file:
     ./pseudo/H.pbesol-rrkjus_psl.1.0.0.UPF
     MD5 check sum: 0324ed591cc0147dc3d88cad0d33f665
     Pseudo is Ultrasoft, Zval =  1.0
     Generated using "atomic" code by A. Dal Corso  v.6.0 svn rev. 13079
     Using radial grid of  929 points,  2 beta functions with: 
                l(1) =   0
                l(2) =   0
     Q(r) pseudized with 0 coefficients 


     PseudoPot. # 2 for O  read from file:
     ./pseudo/O.pbesol-n-kjpaw_psl.0.1.UPF
     MD5 check sum: 81d73d1479e654e5638b0319f0d6c2c7
     Pseudo is Projector augmented-wave + core cor, Zval =  6.0
     Generated using "atomic" code by A. Dal Corso  v.6.0 svn rev. 13079
     Shape of augmentation charge: BESSEL
     Using radial grid of 1095 points,  4 beta functions with: 
                l(1) =   0
                l(2) =   0
                l(3) =   1
                l(4) =   1
     Q(r) pseudized with 0 coefficients 


     atomic species   valence    mass     pseudopotential
        H              1.00     1.00794     H ( 1.00)
        O              6.00    15.99940     O ( 1.00)

     12 Sym. Ops. (no inversion) found ( 6 have fractional translation)


                                    s                        frac. trans.

      isym =  1     identity                                     

 cryst.   s( 1) = (     1          0          0      )
                  (     0          1          0      )
                  (     0          0          1      )

 cart.    s( 1) = (  1.0000000  0.0000000  0.0000000 )
                  (  0.0000000  1.0000000  0.0000000 )
                  (  0.0000000  0.0000000  1.0000000 )


      isym =  2     180 deg rotation - cart. axis [0,0,1]        

 cryst.   s( 2) = (    -1          0          0      )    f =(  0.0000000 )
                  (     0         -1          0      )       (  0.0000000 )
                  (     0          0          1      )       (  0.5000000 )

 cart.    s( 2) = ( -1.0000000  0.0000000  0.0000000 )    f =(  0.0000000 )
                  (  0.0000000 -1.0000000  0.0000000 )       (  0.0000000 )
                  (  0.0000000  0.0000000  1.0000000 )       (  0.4705882 )


      isym =  3      60 deg rotation - cryst. axis [0,0,1]       

 cryst.   s( 3) = (     1          1          0      )    f =(  0.0000000 )
                  (    -1          0          0      )       (  0.0000000 )
                  (     0          0          1      )       (  0.5000000 )

 cart.    s( 3) = (  0.5000000 -0.8660254  0.0000000 )    f =(  0.0000000 )
                  (  0.8660254  0.5000000  0.0000000 )       (  0.0000000 )
                  (  0.0000000  0.0000000  1.0000000 )       (  0.4705882 )


      isym =  4      60 deg rotation - cryst. axis [0,0,-1]      

 cryst.   s( 4) = (     0         -1          0      )    f =(  0.0000000 )
                  (     1          1          0      )       (  0.0000000 )
                  (     0          0          1      )       (  0.5000000 )

 cart.    s( 4) = (  0.5000000  0.8660254  0.0000000 )    f =(  0.0000000 )
                  ( -0.8660254  0.5000000  0.0000000 )       (  0.0000000 )
                  (  0.0000000  0.0000000  1.0000000 )       (  0.4705882 )


      isym =  5     120 deg rotation - cryst. axis [0,0,1]       

 cryst.   s( 5) = (     0          1          0      )
                  (    -1         -1          0      )
                  (     0          0          1      )

 cart.    s( 5) = ( -0.5000000 -0.8660254  0.0000000 )
                  (  0.8660254 -0.5000000  0.0000000 )
                  (  0.0000000  0.0000000  1.0000000 )


      isym =  6     120 deg rotation - cryst. axis [0,0,-1]      

 cryst.   s( 6) = (    -1         -1          0      )
                  (     1          0          0      )
                  (     0          0          1      )

 cart.    s( 6) = ( -0.5000000  0.8660254  0.0000000 )
                  ( -0.8660254 -0.5000000  0.0000000 )
                  (  0.0000000  0.0000000  1.0000000 )


      isym =  7     inv. 180 deg rotation - cart. axis [0,1,0]   

 cryst.   s( 7) = (     1          0          0      )
                  (    -1         -1          0      )
                  (     0          0          1      )

 cart.    s( 7) = (  1.0000000  0.0000000  0.0000000 )
                  (  0.0000000 -1.0000000  0.0000000 )
                  (  0.0000000  0.0000000  1.0000000 )


      isym =  8     inv. 180 deg rotation - cart. axis [1,0,0]   

 cryst.   s( 8) = (    -1          0          0      )    f =(  0.0000000 )
                  (     1          1          0      )       (  0.0000000 )
                  (     0          0          1      )       (  0.5000000 )

 cart.    s( 8) = ( -1.0000000  0.0000000  0.0000000 )    f =(  0.0000000 )
                  (  0.0000000  1.0000000  0.0000000 )       (  0.0000000 )
                  (  0.0000000  0.0000000  1.0000000 )       (  0.4705882 )


      isym =  9     inv. 180 deg rotation - cryst. axis [1,-1,0] 

 cryst.   s( 9) = (     0          1          0      )
                  (     1          0          0      )
                  (     0          0          1      )

 cart.    s( 9) = ( -0.5000000  0.8660254  0.0000000 )
                  (  0.8660254  0.5000000  0.0000000 )
                  (  0.0000000  0.0000000  1.0000000 )


      isym = 10     inv. 180 deg rotation - cryst. axis [2,1,0]  

 cryst.   s(10) = (    -1         -1          0      )
                  (     0          1          0      )
                  (     0          0          1      )

 cart.    s(10) = ( -0.5000000 -0.8660254  0.0000000 )
                  ( -0.8660254  0.5000000  0.0000000 )
                  (  0.0000000  0.0000000  1.0000000 )


      isym = 11     inv. 180 deg rotation - cryst. axis [0,1,0]  

 cryst.   s(11) = (     1          1          0      )    f =(  0.0000000 )
                  (     0         -1          0      )       (  0.0000000 )
                  (     0          0          1      )       (  0.5000000 )

 cart.    s(11) = (  0.5000000  0.8660254  0.0000000 )    f =(  0.0000000 )
                  (  0.8660254 -0.5000000  0.0000000 )       (  0.0000000 )
                  (  0.0000000  0.0000000  1.0000000 )       (  0.4705882 )


      isym = 12     inv. 180 deg rotation - cryst. axis [1,1,0]  

 cryst.   s(12) = (     0         -1          0      )    f =(  0.0000000 )
                  (    -1          0          0      )       (  0.0000000 )
                  (     0          0          1      )       (  0.5000000 )

 cart.    s(12) = (  0.5000000 -0.8660254  0.0000000 )    f =(  0.0000000 )
                  ( -0.8660254 -0.5000000  0.0000000 )       (  0.0000000 )
                  (  0.0000000  0.0000000  1.0000000 )       (  0.4705882 )


   Cartesian axes

     site n.     atom                  positions (alat units)
         1           O   tau(   1) = (   0.1653888   0.2864617   0.5231641  )
         2           O   tau(   2) = (   0.6692225   0.0000000   0.5231641  )
         3           O   tau(   3) = (  -0.3346112   0.5795637   0.5231641  )
         4           O   tau(   4) = (   0.3346112   0.5795637   0.0525759  )
         5           O   tau(   5) = (   0.3307775   0.0000000   0.0525759  )
         6           O   tau(   6) = (  -0.1653888   0.2864617   0.0525759  )
         7           O   tau(   7) = (   0.3318868   0.5748448   0.4057593  )
         8           O   tau(   8) = (   0.3362264   0.0000000   0.4057593  )
         9           O   tau(   9) = (  -0.1681132   0.2911806   0.4057593  )
        10           O   tau(  10) = (   0.1681132   0.2911806   0.8763475  )
        11           O   tau(  11) = (   0.6637736   0.0000000   0.8763475  )
        12           O   tau(  12) = (  -0.3318868   0.5748448   0.8763475  )
        13           H   tau(  13) = (   0.1671420   0.2894985   0.6516866  )
        14           H   tau(  14) = (   0.6657159   0.0000000   0.6516866  )
        15           H   tau(  15) = (  -0.3328580   0.5765269   0.6516866  )
        16           H   tau(  16) = (   0.3328580   0.5765269   0.1810983  )
        17           H   tau(  17) = (   0.3342841   0.0000000   0.1810983  )
        18           H   tau(  18) = (  -0.1671420   0.2894985   0.1810983  )
        19           H   tau(  19) = (   0.2266496   0.3925687   0.4840215  )
        20           H   tau(  20) = (   0.5467007   0.0000000   0.4840215  )
        21           H   tau(  21) = (  -0.2733504   0.4734567   0.4840215  )
        22           H   tau(  22) = (   0.2733504   0.4734567   0.0134333  )
        23           H   tau(  23) = (   0.4532993   0.0000000   0.0134333  )
        24           H   tau(  24) = (  -0.2266496   0.3925687   0.0134333  )
        25           H   tau(  25) = (   0.4525592   0.5779626   0.4500372  )
        26           H   tau(  26) = (   0.2731901   0.1029464   0.4500372  )
        27           H   tau(  27) = (   0.7742507   0.1851164   0.4500372  )
        28           H   tau(  28) = (   0.2742507   0.6809090   0.4500372  )
        29           H   tau(  29) = (  -0.0474408   0.2880628   0.4500372  )
        30           H   tau(  30) = (  -0.2268099   0.7630790   0.4500372  )
        31           H   tau(  31) = (   0.0474408   0.2880628   0.9206254  )
        32           H   tau(  32) = (   0.2268099   0.7630790   0.9206254  )
        33           H   tau(  33) = (  -0.2742507   0.6809090   0.9206254  )
        34           H   tau(  34) = (   0.2257493   0.1851164   0.9206254  )
        35           H   tau(  35) = (   0.5474408   0.5779626   0.9206254  )
        36           H   tau(  36) = (   0.7268099   0.1029464   0.9206254  )

   Crystallographic axes

     site n.     atom                  positions (cryst. coord.)
         1           O   tau(   1) = (  0.3307775  0.3307775  0.5558619  )
         2           O   tau(   2) = (  0.6692225  0.0000000  0.5558619  )
         3           O   tau(   3) = (  0.0000000  0.6692225  0.5558619  )
         4           O   tau(   4) = (  0.6692225  0.6692225  0.0558619  )
         5           O   tau(   5) = (  0.3307775  0.0000000  0.0558619  )
         6           O   tau(   6) = (  0.0000000  0.3307775  0.0558619  )
         7           O   tau(   7) = (  0.6637736  0.6637736  0.4311192  )
         8           O   tau(   8) = (  0.3362264  0.0000000  0.4311192  )
         9           O   tau(   9) = (  0.0000000  0.3362264  0.4311192  )
        10           O   tau(  10) = (  0.3362264  0.3362264  0.9311192  )
        11           O   tau(  11) = (  0.6637736  0.0000000  0.9311192  )
        12           O   tau(  12) = (  0.0000000  0.6637736  0.9311192  )
        13           H   tau(  13) = (  0.3342841  0.3342841  0.6924170  )
        14           H   tau(  14) = (  0.6657159  0.0000000  0.6924170  )
        15           H   tau(  15) = (  0.0000000  0.6657159  0.6924170  )
        16           H   tau(  16) = (  0.6657159  0.6657159  0.1924170  )
        17           H   tau(  17) = (  0.3342841  0.0000000  0.1924170  )
        18           H   tau(  18) = (  0.0000000  0.3342841  0.1924170  )
        19           H   tau(  19) = (  0.4532993  0.4532993  0.5142729  )
        20           H   tau(  20) = (  0.5467007  0.0000000  0.5142729  )
        21           H   tau(  21) = (  0.0000000  0.5467007  0.5142729  )
        22           H   tau(  22) = (  0.5467007  0.5467007  0.0142729  )
        23           H   tau(  23) = (  0.4532993  0.0000000  0.0142729  )
        24           H   tau(  24) = (  0.0000000  0.4532993  0.0142729  )
        25           H   tau(  25) = (  0.7862460  0.6673737  0.4781645  )
        26           H   tau(  26) = (  0.3326263  0.1188723  0.4781645  )
        27           H   tau(  27) = (  0.8811277  0.2137540  0.4781645  )
        28           H   tau(  28) = (  0.6673737  0.7862460  0.4781645  )
        29           H   tau(  29) = (  0.1188723  0.3326263  0.4781645  )
        30           H   tau(  30) = (  0.2137540  0.8811277  0.4781645  )
        31           H   tau(  31) = (  0.2137540  0.3326263  0.9781645  )
        32           H   tau(  32) = (  0.6673737  0.8811277  0.9781645  )
        33           H   tau(  33) = (  0.1188723  0.7862460  0.9781645  )
        34           H   tau(  34) = (  0.3326263  0.2137540  0.9781645  )
        35           H   tau(  35) = (  0.8811277  0.6673737  0.9781645  )
        36           H   tau(  36) = (  0.7862460  0.1188723  0.9781645  )

     number of k points=     4  Marzari-Vanderbilt smearing, width (Ry)=  0.0147
                       cart. coord. in units 2pi/alat
        k(    1) = (   0.0000000   0.0000000   0.0000000), wk =   0.2500000
        k(    2) = (   0.0000000   0.0000000  -0.5312500), wk =   0.2500000
        k(    3) = (   0.0000000  -0.5773503   0.0000000), wk =   0.7500000
        k(    4) = (   0.0000000  -0.5773503  -0.5312500), wk =   0.7500000

                       cryst. coord.
        k(    1) = (   0.0000000   0.0000000   0.0000000), wk =   0.2500000
        k(    2) = (   0.0000000   0.0000000  -0.5000000), wk =   0.2500000
        k(    3) = (   0.0000000  -0.5000000   0.0000000), wk =   0.7500000
        k(    4) = (   0.0000000  -0.5000000  -0.5000000), wk =   0.7500000

     Dense  grid:   467251 G-vectors     FFT dimensions: ( 108, 108, 100)

     Smooth grid:   125607 G-vectors     FFT dimensions: (  72,  72,  64)

     Dynamical RAM for                 wfc:       0.43 MB

     Dynamical RAM for     wfc (w. buffer):       2.17 MB

     Dynamical RAM for           str. fact:       0.45 MB

     Dynamical RAM for           local pot:       0.00 MB

     Dynamical RAM for          nlocal pot:       1.08 MB

     Dynamical RAM for                qrad:       1.00 MB

     Dynamical RAM for          rho,v,vnew:       1.74 MB

     Dynamical RAM for               rhoin:       0.58 MB

     Dynamical RAM for            rho*nmix:       3.56 MB

     Dynamical RAM for           G-vectors:       0.87 MB

     Dynamical RAM for          h,s,v(r/c):       0.62 MB

     Dynamical RAM for          <psi|beta>:       0.13 MB

     Dynamical RAM for                 psi:       0.87 MB

     Dynamical RAM for                hpsi:       0.87 MB

     Dynamical RAM for                spsi:       0.87 MB

     Dynamical RAM for      wfcinit/wfcrot:       1.20 MB

     Dynamical RAM for           addusdens:      14.93 MB

     Dynamical RAM for          addusforce:      25.31 MB

     Dynamical RAM for         addusstress:      11.14 MB

     Estimated static dynamical RAM per process >      10.32 MB

     Estimated max dynamical RAM per process >      39.20 MB

     Estimated total dynamical RAM >       1.22 GB

     Initial potential from superposition of free atoms

     starting charge      95.9997, renormalised to      96.0000
     Starting wfcs are   72 randomized atomic wfcs
     Checking if some PAW data can be deallocated... 
       PAW data deallocated on   24 nodes for type:  2

     total cpu time spent up to now is        2.1 secs

     per-process dynamical memory:    24.9 Mb

     Self-consistent Calculation

     iteration #  1     ecut=    50.00 Ry     beta= 0.40
     Davidson diagonalization with overlap

---- Real-time Memory Report at c_bands before calling an iterative solver
            70 MiB given to the printing process from OS
            24 MiB allocation reported by mallinfo(arena+hblkhd)
        185162 MiB available memory on the node where the printing process lives
------------------
     ethr =  1.00E-02,  avg # of iterations =  4.2

     total cpu time spent up to now is        2.8 secs

     total energy              =    -521.94201816 Ry
     estimated scf accuracy    <       3.67778823 Ry

     iteration #  2     ecut=    50.00 Ry     beta= 0.40
     Davidson diagonalization with overlap

---- Real-time Memory Report at c_bands before calling an iterative solver
            81 MiB given to the printing process from OS
            32 MiB allocation reported by mallinfo(arena+hblkhd)
        184868 MiB available memory on the node where the printing process lives
------------------
     ethr =  3.83E-03,  avg # of iterations =  2.0

     total cpu time spent up to now is        3.4 secs

     total energy              =    -522.71790787 Ry
     estimated scf accuracy    <       0.17002156 Ry

     iteration #  3     ecut=    50.00 Ry     beta= 0.40
     Davidson diagonalization with overlap

---- Real-time Memory Report at c_bands before calling an iterative solver
            82 MiB given to the printing process from OS
            32 MiB allocation reported by mallinfo(arena+hblkhd)
        184866 MiB available memory on the node where the printing process lives
------------------
     ethr =  1.77E-04,  avg # of iterations =  7.5

     total cpu time spent up to now is        4.2 secs

     total energy              =    -522.70268253 Ry
     estimated scf accuracy    <       0.07377853 Ry

     iteration #  4     ecut=    50.00 Ry     beta= 0.40
     Davidson diagonalization with overlap

---- Real-time Memory Report at c_bands before calling an iterative solver
            83 MiB given to the printing process from OS
            32 MiB allocation reported by mallinfo(arena+hblkhd)
        184874 MiB available memory on the node where the printing process lives
------------------
     ethr =  7.69E-05,  avg # of iterations =  3.2

     total cpu time spent up to now is        4.8 secs

     total energy              =    -522.70871712 Ry
     estimated scf accuracy    <       0.02128021 Ry

     iteration #  5     ecut=    50.00 Ry     beta= 0.40
     Davidson diagonalization with overlap

---- Real-time Memory Report at c_bands before calling an iterative solver
            83 MiB given to the printing process from OS
            32 MiB allocation reported by mallinfo(arena+hblkhd)
        184880 MiB available memory on the node where the printing process lives
------------------
     ethr =  2.22E-05,  avg # of iterations =  2.8

     total cpu time spent up to now is        5.4 secs

     total energy              =    -522.70986410 Ry
     estimated scf accuracy    <       0.00183731 Ry

     iteration #  6     ecut=    50.00 Ry     beta= 0.40
     Davidson diagonalization with overlap

---- Real-time Memory Report at c_bands before calling an iterative solver
            84 MiB given to the printing process from OS
            32 MiB allocation reported by mallinfo(arena+hblkhd)
        185048 MiB available memory on the node where the printing process lives
------------------
     ethr =  1.91E-06,  avg # of iterations = 11.0

     total cpu time spent up to now is        6.2 secs

     total energy              =    -522.71014258 Ry
     estimated scf accuracy    <       0.00013541 Ry

     iteration #  7     ecut=    50.00 Ry     beta= 0.40
     Davidson diagonalization with overlap

---- Real-time Memory Report at c_bands before calling an iterative solver
            84 MiB given to the printing process from OS
            32 MiB allocation reported by mallinfo(arena+hblkhd)
        184468 MiB available memory on the node where the printing process lives
------------------
     ethr =  1.41E-07,  avg # of iterations =  4.2

     total cpu time spent up to now is        7.0 secs

     total energy              =    -522.71020237 Ry
     estimated scf accuracy    <       0.00035548 Ry

     iteration #  8     ecut=    50.00 Ry     beta= 0.40
     Davidson diagonalization with overlap

---- Real-time Memory Report at c_bands before calling an iterative solver
            85 MiB given to the printing process from OS
            33 MiB allocation reported by mallinfo(arena+hblkhd)
        184473 MiB available memory on the node where the printing process lives
------------------
     ethr =  1.41E-07,  avg # of iterations =  2.0

     total cpu time spent up to now is        7.6 secs

     total energy              =    -522.71024401 Ry
     estimated scf accuracy    <       0.00002074 Ry

     iteration #  9     ecut=    50.00 Ry     beta= 0.40
     Davidson diagonalization with overlap

---- Real-time Memory Report at c_bands before calling an iterative solver
            86 MiB given to the printing process from OS
            33 MiB allocation reported by mallinfo(arena+hblkhd)
        184476 MiB available memory on the node where the printing process lives
------------------
     ethr =  2.16E-08,  avg # of iterations =  2.5

     total cpu time spent up to now is        8.2 secs

     total energy              =    -522.71024837 Ry
     estimated scf accuracy    <       0.00000174 Ry

     iteration # 10     ecut=    50.00 Ry     beta= 0.40
     Davidson diagonalization with overlap

---- Real-time Memory Report at c_bands before calling an iterative solver
            88 MiB given to the printing process from OS
            35 MiB allocation reported by mallinfo(arena+hblkhd)
        184476 MiB available memory on the node where the printing process lives
------------------
     ethr =  1.82E-09,  avg # of iterations =  2.8

     total cpu time spent up to now is        8.8 secs

     total energy              =    -522.71024841 Ry
     estimated scf accuracy    <       0.00000066 Ry

     iteration # 11     ecut=    50.00 Ry     beta= 0.40
     Davidson diagonalization with overlap

---- Real-time Memory Report at c_bands before calling an iterative solver
            89 MiB given to the printing process from OS
            35 MiB allocation reported by mallinfo(arena+hblkhd)
        184477 MiB available memory on the node where the printing process lives
------------------
     ethr =  6.87E-10,  avg # of iterations =  2.0

     total cpu time spent up to now is        9.3 secs

     total energy              =    -522.71024849 Ry
     estimated scf accuracy    <       0.00000005 Ry

     iteration # 12     ecut=    50.00 Ry     beta= 0.40
     Davidson diagonalization with overlap

---- Real-time Memory Report at c_bands before calling an iterative solver
            89 MiB given to the printing process from OS
            35 MiB allocation reported by mallinfo(arena+hblkhd)
        184478 MiB available memory on the node where the printing process lives
------------------
     ethr =  4.97E-11,  avg # of iterations =  2.2

     total cpu time spent up to now is        9.9 secs

     total energy              =    -522.71024850 Ry
     estimated scf accuracy    <       0.00000001 Ry

     iteration # 13     ecut=    50.00 Ry     beta= 0.40
     Davidson diagonalization with overlap

---- Real-time Memory Report at c_bands before calling an iterative solver
            89 MiB given to the printing process from OS
            35 MiB allocation reported by mallinfo(arena+hblkhd)
        184788 MiB available memory on the node where the printing process lives
------------------
     ethr =  1.49E-11,  avg # of iterations =  2.0

     total cpu time spent up to now is       10.4 secs

     End of self-consistent calculation

          k = 0.0000 0.0000 0.0000 ( 15715 PWs)   bands (ev):

   -21.7765 -21.4405 -21.2756 -21.2756 -21.2712 -21.2712 -20.9184 -20.9184
   -20.9144 -20.9144 -20.7362 -20.3464  -9.2787  -9.2598  -9.2041  -9.2041
    -9.1874  -9.1874  -9.1637  -9.1112  -9.0963  -9.0963  -9.0380  -9.0380
    -7.4047  -6.6772  -6.3427  -6.3427  -6.2140  -6.2140  -5.5423  -5.5423
    -5.3552  -5.3552  -5.1763  -4.4160  -3.9243  -3.9243  -3.8147  -3.8147
    -3.7103  -3.6652  -3.6610  -3.6443  -3.6443  -3.5780  -3.5780  -3.5744
     1.9896   4.9186   5.1817   5.2015   5.3438   5.6191   5.6191   5.6298
     5.6298   6.6727

     occupation numbers 
     1.0000   1.0000   1.0000   1.0000   1.0000   1.0000   1.0000   1.0000
     1.0000   1.0000   1.0000   1.0000   1.0000   1.0000   1.0000   1.0000
     1.0000   1.0000   1.0000   1.0000   1.0000   1.0000   1.0000   1.0000
     1.0000   1.0000   1.0000   1.0000   1.0000   1.0000   1.0000   1.0000
     1.0000   1.0000   1.0000   1.0000   1.0000   1.0000   1.0000   1.0000
     1.0000   1.0000   1.0000   1.0000   1.0000   1.0000   1.0000   1.0000
     0.0000   0.0000   0.0000   0.0000   0.0000   0.0000   0.0000   0.0000
     0.0000   0.0000

          k = 0.0000 0.0000-0.5312 ( 15740 PWs)   bands (ev):

   -21.6376 -21.6376 -21.2714 -21.2714 -21.2714 -21.2714 -20.9187 -20.9187
   -20.9187 -20.9187 -20.5125 -20.5125  -9.2220  -9.2220  -9.1891  -9.1891
    -9.1785  -9.1785  -9.1785  -9.1785  -9.0701  -9.0701  -9.0701  -9.0701
    -7.0652  -7.0652  -6.3281  -6.3281  -6.3281  -6.3281  -5.4118  -5.4118
    -5.4118  -5.4118  -4.7932  -4.7932  -3.8742  -3.8742  -3.8742  -3.8742
    -3.6746  -3.6746  -3.6414  -3.6414  -3.6273  -3.6273  -3.6273  -3.6273
     2.9888   2.9888   5.6441   5.6441   5.6604   5.6604   6.3613   6.3613
     6.3613   6.3613

     occupation numbers 
     1.0000   1.0000   1.0000   1.0000   1.0000   1.0000   1.0000   1.0000
     1.0000   1.0000   1.0000   1.0000   1.0000   1.0000   1.0000   1.0000
     1.0000   1.0000   1.0000   1.0000   1.0000   1.0000   1.0000   1.0000
     1.0000   1.0000   1.0000   1.0000   1.0000   1.0000   1.0000   1.0000
     1.0000   1.0000   1.0000   1.0000   1.0000   1.0000   1.0000   1.0000
     1.0000   1.0000   1.0000   1.0000   1.0000   1.0000   1.0000   1.0000
     0.0000   0.0000   0.0000   0.0000   0.0000   0.0000   0.0000   0.0000
     0.0000   0.0000

          k = 0.0000-0.5774 0.0000 ( 15704 PWs)   bands (ev):

   -21.6125 -21.6115 -21.4438 -21.2706 -21.2698 -21.1033 -21.0910 -20.9205
   -20.9186 -20.7329 -20.5435 -20.5416  -9.2659  -9.2641  -9.2410  -9.1910
    -9.1752  -9.1376  -9.1350  -9.1163  -9.0938  -9.0852  -9.0813  -9.0736
    -7.0652  -6.9550  -6.6707  -6.2754  -6.1854  -5.9159  -5.8613  -5.5693
    -5.5678  -5.0497  -4.7949  -4.7216  -3.8731  -3.8684  -3.8470  -3.8247
    -3.7642  -3.7333  -3.6700  -3.6481  -3.6448  -3.6006  -3.5444  -3.5392
     3.1556   3.1631   4.7389   4.9871   5.5669   5.5842   5.9761   5.9903
     6.1013   6.7446

     occupation numbers 
     1.0000   1.0000   1.0000   1.0000   1.0000   1.0000   1.0000   1.0000
     1.0000   1.0000   1.0000   1.0000   1.0000   1.0000   1.0000   1.0000
     1.0000   1.0000   1.0000   1.0000   1.0000   1.0000   1.0000   1.0000
     1.0000   1.0000   1.0000   1.0000   1.0000   1.0000   1.0000   1.0000
     1.0000   1.0000   1.0000   1.0000   1.0000   1.0000   1.0000   1.0000
     1.0000   1.0000   1.0000   1.0000   1.0000   1.0000   1.0000   1.0000
     0.0000   0.0000   0.0000   0.0000   0.0000   0.0000   0.0000   0.0000
     0.0000   0.0000

          k = 0.0000-0.5774-0.5312 ( 15680 PWs)   bands (ev):

   -21.4834 -21.4834 -21.4825 -21.4825 -21.3426 -21.3426 -20.8432 -20.8432
   -20.6904 -20.6904 -20.6886 -20.6886  -9.2178  -9.2178  -9.1927  -9.1927
    -9.1446  -9.1446  -9.1375  -9.1375  -9.1080  -9.1080  -9.1060  -9.1060
    -6.7629  -6.7629  -6.6622  -6.6622  -6.4590  -6.4590  -5.3003  -5.3003
    -5.1069  -5.1069  -5.0842  -5.0842  -3.8425  -3.8425  -3.8337  -3.8337
    -3.7428  -3.7428  -3.6668  -3.6668  -3.6165  -3.6165  -3.6111  -3.6111
     3.9894   3.9894   3.9971   3.9971   5.3457   5.3457   5.6770   5.6770
     7.4694   7.4694

     occupation numbers 
     1.0000   1.0000   1.0000   1.0000   1.0000   1.0000   1.0000   1.0000
     1.0000   1.0000   1.0000   1.0000   1.0000   1.0000   1.0000   1.0000
     1.0000   1.0000   1.0000   1.0000   1.0000   1.0000   1.0000   1.0000
     1.0000   1.0000   1.0000   1.0000   1.0000   1.0000   1.0000   1.0000
     1.0000   1.0000   1.0000   1.0000   1.0000   1.0000   1.0000   1.0000
     1.0000   1.0000   1.0000   1.0000   1.0000   1.0000   1.0000   1.0000
     0.0000   0.0000   0.0000   0.0000   0.0000   0.0000   0.0000   0.0000
     0.0000   0.0000

     the Fermi energy is    -0.9199 ev

!    total energy              =    -522.71024850 Ry
     estimated scf accuracy    <          3.8E-09 Ry
     smearing contrib. (-TS)   =       0.00000000 Ry
     internal energy E=F+TS    =    -522.71024850 Ry

     The total energy is F=E-TS. E is the sum of the following terms:
     one-electron contribution =    -351.78173207 Ry
     hartree contribution      =     207.46901057 Ry
     xc contribution           =    -104.73180674 Ry
     ewald contribution        =    -164.52513999 Ry
     one-center paw contrib.   =    -109.14058027 Ry
      -> PAW hartree energy AE =      56.67907388 Ry
      -> PAW hartree energy PS =     -56.40335755 Ry
      -> PAW xc energy AE      =     -33.08247832 Ry
      -> PAW xc energy PS      =      14.61662925 Ry
      -> total E_H with PAW    =     207.74472690 Ry
      -> total E_XC with PAW   =    -123.19765582 Ry

     convergence has been achieved in  13 iterations

     Forces acting on atoms (cartesian axes, Ry/au):

     atom    1 type  2   force =    -0.00000710   -0.00001229   -0.00001117
     atom    2 type  2   force =     0.00001419    0.00000000   -0.00001117
     atom    3 type  2   force =    -0.00000710    0.00001229   -0.00001117
     atom    4 type  2   force =     0.00000710    0.00001229   -0.00001117
     atom    5 type  2   force =    -0.00001419    0.00000000   -0.00001117
     atom    6 type  2   force =     0.00000710   -0.00001229   -0.00001117
     atom    7 type  2   force =     0.00001600    0.00002771    0.00000943
     atom    8 type  2   force =    -0.00003200    0.00000000    0.00000943
     atom    9 type  2   force =     0.00001600   -0.00002771    0.00000943
     atom   10 type  2   force =    -0.00001600   -0.00002771    0.00000943
     atom   11 type  2   force =     0.00003200   -0.00000000    0.00000943
     atom   12 type  2   force =    -0.00001600    0.00002771    0.00000943
     atom   13 type  1   force =     0.00000684    0.00001184   -0.00003454
     atom   14 type  1   force =    -0.00001368   -0.00000000   -0.00003454
     atom   15 type  1   force =     0.00000684   -0.00001184   -0.00003454
     atom   16 type  1   force =    -0.00000684   -0.00001184   -0.00003454
     atom   17 type  1   force =     0.00001368    0.00000000   -0.00003454
     atom   18 type  1   force =    -0.00000684    0.00001184   -0.00003454
     atom   19 type  1   force =    -0.00000184   -0.00000319    0.00003421
     atom   20 type  1   force =     0.00000369   -0.00000000    0.00003421
     atom   21 type  1   force =    -0.00000184    0.00000319    0.00003421
     atom   22 type  1   force =     0.00000184    0.00000319    0.00003421
     atom   23 type  1   force =    -0.00000369   -0.00000000    0.00003421
     atom   24 type  1   force =     0.00000184   -0.00000319    0.00003421
     atom   25 type  1   force =     0.00002631   -0.00002603    0.00000103
     atom   26 type  1   force =     0.00000939    0.00003580    0.00000103
     atom   27 type  1   force =    -0.00003570   -0.00000977    0.00000103
     atom   28 type  1   force =    -0.00003570    0.00000977    0.00000103
     atom   29 type  1   force =     0.00002631    0.00002603    0.00000103
     atom   30 type  1   force =     0.00000939   -0.00003580    0.00000103
     atom   31 type  1   force =    -0.00002631    0.00002603    0.00000103
     atom   32 type  1   force =    -0.00000939   -0.00003580    0.00000103
     atom   33 type  1   force =     0.00003570    0.00000977    0.00000103
     atom   34 type  1   force =     0.00003570   -0.00000977    0.00000103
     atom   35 type  1   force =    -0.00002631   -0.00002603    0.00000103
     atom   36 type  1   force =    -0.00000939    0.00003580    0.00000103
     The non-local contrib.  to forces
     atom    1 type  2   force =     0.68693516    1.18980660    0.97835029
     atom    2 type  2   force =    -1.37387032    0.00000000    0.97835029
     atom    3 type  2   force =     0.68693516   -1.18980660    0.97835029
     atom    4 type  2   force =    -0.68693516   -1.18980660    0.97835029
     atom    5 type  2   force =     1.37387032   -0.00000000    0.97835029
     atom    6 type  2   force =    -0.68693516    1.18980660    0.97835029
     atom    7 type  2   force =     0.69013950    1.19535668    0.96795346
     atom    8 type  2   force =    -1.38027900   -0.00000000    0.96795346
     atom    9 type  2   force =     0.69013950   -1.19535668    0.96795346
     atom   10 type  2   force =    -0.69013950   -1.19535668    0.96795346
     atom   11 type  2   force =     1.38027900    0.00000000    0.96795346
     atom   12 type  2   force =    -0.69013950    1.19535668    0.96795346
     atom   13 type  1   force =    -0.00028510   -0.00049381   -0.09233933
     atom   14 type  1   force =     0.00057020   -0.00000000   -0.09233933
     atom   15 type  1   force =    -0.00028510    0.00049381   -0.09233933
     atom   16 type  1   force =     0.00028510    0.00049381   -0.09233933
     atom   17 type  1   force =    -0.00057020    0.00000000   -0.09233933
     atom   18 type  1   force =     0.00028510   -0.00049381   -0.09233933
     atom   19 type  1   force =    -0.04352618   -0.07538956    0.03011306
     atom   20 type  1   force =     0.08705237   -0.00000000    0.03011306
     atom   21 type  1   force =    -0.04352618    0.07538956    0.03011306
     atom   22 type  1   force =     0.04352618    0.07538956    0.03011306
     atom   23 type  1   force =    -0.08705237   -0.00000000    0.03011306
     atom   24 type  1   force =     0.04352618   -0.07538956    0.03011306
     atom   25 type  1   force =    -0.08706366   -0.00050127   -0.03073654
     atom   26 type  1   force =     0.04396594   -0.07514871   -0.03073654
     atom   27 type  1   force =     0.04309772    0.07564997   -0.03073654
     atom   28 type  1   force =     0.04309772   -0.07564997   -0.03073654
     atom   29 type  1   force =    -0.08706366    0.00050127   -0.03073654
     atom   30 type  1   force =     0.04396594    0.07514871   -0.03073654
     atom   31 type  1   force =     0.08706366    0.00050127   -0.03073654
     atom   32 type  1   force =    -0.04396594    0.07514871   -0.03073654
     atom   33 type  1   force =    -0.04309772   -0.07564997   -0.03073654
     atom   34 type  1   force =    -0.04309772    0.07564997   -0.03073654
     atom   35 type  1   force =     0.08706366   -0.00050127   -0.03073654
     atom   36 type  1   force =    -0.04396594   -0.07514871   -0.03073654
     The ionic contribution  to forces
     atom    1 type  2   force =    -1.18476502   -2.05207320   -1.65283093
     atom    2 type  2   force =     2.36953003    0.00000000   -1.65283093
     atom    3 type  2   force =    -1.18476501    2.05207320   -1.65283093
     atom    4 type  2   force =     1.18476502    2.05207320   -1.65283093
     atom    5 type  2   force =    -2.36953003   -0.00000000   -1.65283093
     atom    6 type  2   force =     1.18476501   -2.05207320   -1.65283093
     atom    7 type  2   force =    -1.17625332   -2.03733051   -1.71779410
     atom    8 type  2   force =     2.35250665   -0.00000000   -1.71779411
     atom    9 type  2   force =    -1.17625333    2.03733052   -1.71779411
     atom   10 type  2   force =     1.17625332    2.03733051   -1.71779410
     atom   11 type  2   force =    -2.35250665    0.00000000   -1.71779411
     atom   12 type  2   force =     1.17625333   -2.03733052   -1.71779411
     atom   13 type  1   force =     0.01326333    0.02297276    2.50052915
     atom   14 type  1   force =    -0.02652666    0.00000000    2.50052915
     atom   15 type  1   force =     0.01326333   -0.02297276    2.50052915
     atom   16 type  1   force =    -0.01326333   -0.02297276    2.50052915
     atom   17 type  1   force =     0.02652666   -0.00000000    2.50052915
     atom   18 type  1   force =    -0.01326333    0.02297276    2.50052915
     atom   19 type  1   force =     1.18080175    2.04520862   -0.79642065
     atom   20 type  1   force =    -2.36160350    0.00000000   -0.79642065
     atom   21 type  1   force =     1.18080175   -2.04520862   -0.79642065
     atom   22 type  1   force =    -1.18080175   -2.04520862   -0.79642065
     atom   23 type  1   force =     2.36160350   -0.00000000   -0.79642065
     atom   24 type  1   force =    -1.18080175    2.04520862   -0.79642065
     atom   25 type  1   force =     2.35945090    0.02780512    0.83325827
     atom   26 type  1   force =    -1.20380539    2.02944186    0.83325827
     atom   27 type  1   force =    -1.15564551   -2.05724698    0.83325827
     atom   28 type  1   force =    -1.15564551    2.05724698    0.83325827
     atom   29 type  1   force =     2.35945090   -0.02780512    0.83325827
     atom   30 type  1   force =    -1.20380539   -2.02944186    0.83325827
     atom   31 type  1   force =    -2.35945090   -0.02780512    0.83325827
     atom   32 type  1   force =     1.20380539   -2.02944186    0.83325827
     atom   33 type  1   force =     1.15564551    2.05724698    0.83325827
     atom   34 type  1   force =     1.15564551   -2.05724698    0.83325827
     atom   35 type  1   force =    -2.35945090    0.02780512    0.83325827
     atom   36 type  1   force =     1.20380539    2.02944186    0.83325827
     The local contribution  to forces
     atom    1 type  2   force =     0.50363442    0.87232040    0.68274069
     atom    2 type  2   force =    -1.00726884   -0.00000000    0.68274069
     atom    3 type  2   force =     0.50363442   -0.87232040    0.68274069
     atom    4 type  2   force =    -0.50363442   -0.87232040    0.68274069
     atom    5 type  2   force =     1.00726884    0.00000000    0.68274069
     atom    6 type  2   force =    -0.50363442    0.87232040    0.68274069
     atom    7 type  2   force =     0.49197673    0.85212869    0.75804521
     atom    8 type  2   force =    -0.98395345    0.00000000    0.75804521
     atom    9 type  2   force =     0.49197673   -0.85212869    0.75804521
     atom   10 type  2   force =    -0.49197673   -0.85212869    0.75804521
     atom   11 type  2   force =     0.98395345   -0.00000000    0.75804521
     atom   12 type  2   force =    -0.49197673    0.85212869    0.75804521
     atom   13 type  1   force =    -0.01297119   -0.02246676   -2.40821871
     atom   14 type  1   force =     0.02594238   -0.00000000   -2.40821871
     atom   15 type  1   force =    -0.01297119    0.02246676   -2.40821871
     atom   16 type  1   force =     0.01297119    0.02246676   -2.40821871
     atom   17 type  1   force =    -0.02594238    0.00000000   -2.40821871
     atom   18 type  1   force =     0.01297119   -0.02246676   -2.40821871
     atom   19 type  1   force =    -1.13727593   -1.96981970    0.76634492
     atom   20 type  1   force =     2.27455187   -0.00000000    0.76634492
     atom   21 type  1   force =    -1.13727593    1.96981970    0.76634492
     atom   22 type  1   force =     1.13727593    1.96981970    0.76634492
     atom   23 type  1   force =    -2.27455187    0.00000000    0.76634492
     atom   24 type  1   force =     1.13727593   -1.96981970    0.76634492
     atom   25 type  1   force =    -2.27235841   -0.02732910   -0.80251615
     atom   26 type  1   force =     1.15984690   -1.95425556   -0.80251615
     atom   27 type  1   force =     1.11251151    1.98158466   -0.80251615
     atom   28 type  1   force =     1.11251151   -1.98158466   -0.80251615
     atom   29 type  1   force =    -2.27235841    0.02732910   -0.80251615
     atom   30 type  1   force =     1.15984690    1.95425556   -0.80251615
     atom   31 type  1   force =     2.27235841    0.02732910   -0.80251615
     atom   32 type  1   force =    -1.15984690    1.95425556   -0.80251615
     atom   33 type  1   force =    -1.11251151   -1.98158466   -0.80251615
     atom   34 type  1   force =    -1.11251151    1.98158466   -0.80251615
     atom   35 type  1   force =     2.27235841   -0.02732910   -0.80251615
     atom   36 type  1   force =    -1.15984690   -1.95425556   -0.80251615
     The core correction contribution to forces
     atom    1 type  2   force =    -0.00580852   -0.01006066   -0.00825957
     atom    2 type  2   force =     0.01161704   -0.00000000   -0.00825957
     atom    3 type  2   force =    -0.00580852    0.01006066   -0.00825957
     atom    4 type  2   force =     0.00580852    0.01006066   -0.00825957
     atom    5 type  2   force =    -0.01161704    0.00000000   -0.00825957
     atom    6 type  2   force =     0.00580852   -0.01006066   -0.00825957
     atom    7 type  2   force =    -0.00584144   -0.01011767   -0.00818364
     atom    8 type  2   force =     0.01168288   -0.00000000   -0.00818364
     atom    9 type  2   force =    -0.00584144    0.01011767   -0.00818364
     atom   10 type  2   force =     0.00584144    0.01011767   -0.00818364
     atom   11 type  2   force =    -0.01168288    0.00000000   -0.00818364
     atom   12 type  2   force =     0.00584144   -0.01011767   -0.00818364
     atom   13 type  1   force =     0.00000000    0.00000000    0.00000000
     atom   14 type  1   force =     0.00000000    0.00000000    0.00000000
     atom   15 type  1   force =     0.00000000    0.00000000    0.00000000
     atom   16 type  1   force =     0.00000000    0.00000000    0.00000000
     atom   17 type  1   force =     0.00000000    0.00000000    0.00000000
     atom   18 type  1   force =     0.00000000    0.00000000    0.00000000
     atom   19 type  1   force =     0.00000000    0.00000000    0.00000000
     atom   20 type  1   force =     0.00000000    0.00000000    0.00000000
     atom   21 type  1   force =     0.00000000    0.00000000    0.00000000
     atom   22 type  1   force =     0.00000000    0.00000000    0.00000000
     atom   23 type  1   force =     0.00000000    0.00000000    0.00000000
     atom   24 type  1   force =     0.00000000    0.00000000    0.00000000
     atom   25 type  1   force =     0.00000000    0.00000000    0.00000000
     atom   26 type  1   force =     0.00000000    0.00000000    0.00000000
     atom   27 type  1   force =     0.00000000    0.00000000    0.00000000
     atom   28 type  1   force =     0.00000000    0.00000000    0.00000000
     atom   29 type  1   force =     0.00000000    0.00000000    0.00000000
     atom   30 type  1   force =     0.00000000    0.00000000    0.00000000
     atom   31 type  1   force =     0.00000000    0.00000000    0.00000000
     atom   32 type  1   force =     0.00000000    0.00000000    0.00000000
     atom   33 type  1   force =     0.00000000    0.00000000    0.00000000
     atom   34 type  1   force =     0.00000000    0.00000000    0.00000000
     atom   35 type  1   force =     0.00000000    0.00000000    0.00000000
     atom   36 type  1   force =     0.00000000    0.00000000    0.00000000
     The Hubbard contrib.    to forces
     atom    1 type  2   force =     0.00000000    0.00000000    0.00000000
     atom    2 type  2   force =     0.00000000    0.00000000    0.00000000
     atom    3 type  2   force =     0.00000000    0.00000000    0.00000000
     atom    4 type  2   force =     0.00000000    0.00000000    0.00000000
     atom    5 type  2   force =     0.00000000    0.00000000    0.00000000
     atom    6 type  2   force =     0.00000000    0.00000000    0.00000000
     atom    7 type  2   force =     0.00000000    0.00000000    0.00000000
     atom    8 type  2   force =     0.00000000    0.00000000    0.00000000
     atom    9 type  2   force =     0.00000000    0.00000000    0.00000000
     atom   10 type  2   force =     0.00000000    0.00000000    0.00000000
     atom   11 type  2   force =     0.00000000    0.00000000    0.00000000
     atom   12 type  2   force =     0.00000000    0.00000000    0.00000000
     atom   13 type  1   force =     0.00000000    0.00000000    0.00000000
     atom   14 type  1   force =     0.00000000    0.00000000    0.00000000
     atom   15 type  1   force =     0.00000000    0.00000000    0.00000000
     atom   16 type  1   force =     0.00000000    0.00000000    0.00000000
     atom   17 type  1   force =     0.00000000    0.00000000    0.00000000
     atom   18 type  1   force =     0.00000000    0.00000000    0.00000000
     atom   19 type  1   force =     0.00000000    0.00000000    0.00000000
     atom   20 type  1   force =     0.00000000    0.00000000    0.00000000
     atom   21 type  1   force =     0.00000000    0.00000000    0.00000000
     atom   22 type  1   force =     0.00000000    0.00000000    0.00000000
     atom   23 type  1   force =     0.00000000    0.00000000    0.00000000
     atom   24 type  1   force =     0.00000000    0.00000000    0.00000000
     atom   25 type  1   force =     0.00000000    0.00000000    0.00000000
     atom   26 type  1   force =     0.00000000    0.00000000    0.00000000
     atom   27 type  1   force =     0.00000000    0.00000000    0.00000000
     atom   28 type  1   force =     0.00000000    0.00000000    0.00000000
     atom   29 type  1   force =     0.00000000    0.00000000    0.00000000
     atom   30 type  1   force =     0.00000000    0.00000000    0.00000000
     atom   31 type  1   force =     0.00000000    0.00000000    0.00000000
     atom   32 type  1   force =     0.00000000    0.00000000    0.00000000
     atom   33 type  1   force =     0.00000000    0.00000000    0.00000000
     atom   34 type  1   force =     0.00000000    0.00000000    0.00000000
     atom   35 type  1   force =     0.00000000    0.00000000    0.00000000
     atom   36 type  1   force =     0.00000000    0.00000000    0.00000000
     The SCF correction term to forces
     atom    1 type  2   force =    -0.00000314   -0.00000544   -0.00000869
     atom    2 type  2   force =     0.00000628   -0.00000000   -0.00000869
     atom    3 type  2   force =    -0.00000314    0.00000544   -0.00000869
     atom    4 type  2   force =     0.00000314    0.00000544   -0.00000869
     atom    5 type  2   force =    -0.00000628    0.00000000   -0.00000869
     atom    6 type  2   force =     0.00000314   -0.00000544   -0.00000869
     atom    7 type  2   force =    -0.00000546   -0.00000946   -0.00000852
     atom    8 type  2   force =     0.00001092    0.00000000   -0.00000852
     atom    9 type  2   force =    -0.00000546    0.00000946   -0.00000852
     atom   10 type  2   force =     0.00000546    0.00000946   -0.00000852
     atom   11 type  2   force =    -0.00001092   -0.00000000   -0.00000852
     atom   12 type  2   force =     0.00000546   -0.00000946   -0.00000852
     atom   13 type  1   force =    -0.00000020   -0.00000035   -0.00000269
     atom   14 type  1   force =     0.00000041   -0.00000000   -0.00000269
     atom   15 type  1   force =    -0.00000020    0.00000035   -0.00000269
     atom   16 type  1   force =     0.00000020    0.00000035   -0.00000269
     atom   17 type  1   force =    -0.00000041    0.00000000   -0.00000269
     atom   18 type  1   force =     0.00000020   -0.00000035   -0.00000269
     atom   19 type  1   force =    -0.00000148   -0.00000256   -0.00000014
     atom   20 type  1   force =     0.00000295   -0.00000000   -0.00000014
     atom   21 type  1   force =    -0.00000148    0.00000256   -0.00000014
     atom   22 type  1   force =     0.00000148    0.00000256   -0.00000014
     atom   23 type  1   force =    -0.00000295    0.00000000   -0.00000014
     atom   24 type  1   force =     0.00000148   -0.00000256   -0.00000014
     atom   25 type  1   force =    -0.00000252   -0.00000079   -0.00000157
     atom   26 type  1   force =     0.00000194   -0.00000179   -0.00000157
     atom   27 type  1   force =     0.00000058    0.00000258   -0.00000157
     atom   28 type  1   force =     0.00000058   -0.00000258   -0.00000157
     atom   29 type  1   force =    -0.00000252    0.00000079   -0.00000157
     atom   30 type  1   force =     0.00000194    0.00000179   -0.00000157
     atom   31 type  1   force =     0.00000252    0.00000079   -0.00000157
     atom   32 type  1   force =    -0.00000194    0.00000179   -0.00000157
     atom   33 type  1   force =    -0.00000058   -0.00000258   -0.00000157
     atom   34 type  1   force =    -0.00000058    0.00000258   -0.00000157
     atom   35 type  1   force =     0.00000252   -0.00000079   -0.00000157
     atom   36 type  1   force =    -0.00000194   -0.00000179   -0.00000157

     Total force =     0.000201     Total SCF correction =     0.000045
     SCF correction compared to forces is large: reduce conv_thr to get better values


     Computing stress (Cartesian axis) and pressure

          total   stress  (Ry/bohr**3)                   (kbar)     P=      -21.37
  -0.00014629   0.00000000  -0.00000000          -21.52        0.00       -0.00
  -0.00000000  -0.00014629  -0.00000000           -0.00      -21.52       -0.00
  -0.00000000  -0.00000000  -0.00014317           -0.00       -0.00      -21.06

     kinetic stress (kbar)   8444.30     -0.00      0.00
                               -0.00   8444.30      0.00
                                0.00      0.00   8447.65

     local   stress (kbar)  -8745.77      0.00      0.00
                                0.00  -8745.77      0.00
                                0.00      0.00  -9318.92

     nonloc. stress (kbar)   1490.81      0.00      0.00
                                0.00   1490.81     -0.00
                                0.00     -0.00   1490.82

     hartree stress (kbar)   3778.23     -0.00      0.00
                               -0.00   3778.23      0.00
                                0.00      0.00   4046.32

     exc-cor stress (kbar)  -1535.79      0.00     -0.00
                                0.00  -1535.79     -0.00
                               -0.00     -0.00  -1535.81

     corecor stress (kbar)   -285.53     -0.00     -0.00
                               -0.00   -285.53     -0.00
                               -0.00     -0.00   -285.53

     ewald   stress (kbar)  -3167.77     -0.00     -0.00
                               -0.00  -3167.77      0.00
                               -0.00      0.00  -2865.59

     hubbard stress (kbar)      0.00      0.00      0.00
                                0.00      0.00      0.00
                                0.00      0.00      0.00

     DFT-D   stress (kbar)      0.00      0.00      0.00
                                0.00      0.00      0.00
                                0.00      0.00      0.00

     XDM     stress (kbar)      0.00      0.00      0.00
                                0.00      0.00      0.00
                                0.00      0.00      0.00

     dft-nl  stress (kbar)      0.00      0.00      0.00
                                0.00      0.00      0.00
                                0.00      0.00      0.00

     TS-vdW  stress (kbar)      0.00      0.00      0.00
                                0.00      0.00      0.00
                                0.00      0.00      0.00

     MDB     stress (kbar)      0.00      0.00      0.00
                                0.00      0.00      0.00
                                0.00      0.00      0.00

     3D-RISM stress (kbar)      0.00      0.00      0.00
                                0.00      0.00      0.00
                                0.00      0.00      0.00


     Writing all to output data dir ./out/IceIh.save/

     init_run     :      1.55s CPU      1.77s WALL (       1 calls)
     electrons    :      7.17s CPU      8.39s WALL (       1 calls)
     forces       :      0.37s CPU      0.40s WALL (       1 calls)
     stress       :      1.05s CPU      1.11s WALL (       1 calls)

     Called by init_run:
     wfcinit      :      0.20s CPU      0.29s WALL (       1 calls)
     wfcinit:atom :      0.00s CPU      0.00s WALL (       4 calls)
     wfcinit:wfcr :      0.19s CPU      0.28s WALL (       4 calls)
     potinit      :      0.65s CPU      0.68s WALL (       1 calls)
     hinit0       :      0.46s CPU      0.53s WALL (       1 calls)

     Called by electrons:
     c_bands      :      4.88s CPU      5.68s WALL (      13 calls)
     sum_band     :      0.98s CPU      1.17s WALL (      13 calls)
     v_of_rho     :      0.36s CPU      0.45s WALL (      14 calls)
     v_h          :      0.03s CPU      0.05s WALL (      14 calls)
     v_xc         :      0.38s CPU      0.46s WALL (      16 calls)
     newd         :      0.32s CPU      0.37s WALL (      14 calls)
     PAW_pot      :      0.64s CPU      0.65s WALL (      14 calls)
     mix_rho      :      0.04s CPU      0.07s WALL (      13 calls)

     Called by c_bands:
     init_us_2    :      0.05s CPU      0.06s WALL (     116 calls)
     init_us_2:cp :      0.05s CPU      0.06s WALL (     116 calls)
     cegterg      :      4.79s CPU      5.56s WALL (      52 calls)

     Called by sum_band:
     sum_band:wei :      0.00s CPU      0.00s WALL (      13 calls)
     sum_band:loo :      0.60s CPU      0.76s WALL (      13 calls)
     sum_band:buf :      0.01s CPU      0.01s WALL (      52 calls)
     sum_band:ini :      0.02s CPU      0.02s WALL (      52 calls)
     sum_band:cal :      0.09s CPU      0.10s WALL (      52 calls)
     sum_band:bec :      0.00s CPU      0.00s WALL (      52 calls)
     addusdens    :      0.31s CPU      0.32s WALL (      13 calls)
                                        0.00s GPU  (      13 calls)
     addusd:skk   :      0.06s CPU      0.07s WALL (      26 calls)
                                        0.00s GPU  (      26 calls)

     Called by *egterg:
     cdiaghg      :      0.83s CPU      0.92s WALL (     246 calls)
     cegterg:over :      0.24s CPU      0.27s WALL (     194 calls)
     cegterg:upda :      0.14s CPU      0.15s WALL (     194 calls)
     cegterg:last :      0.27s CPU      0.27s WALL (     111 calls)
     h_psi        :      3.15s CPU      3.86s WALL (     250 calls)
     s_psi        :      0.20s CPU      0.21s WALL (     250 calls)
     g_psi        :      0.01s CPU      0.01s WALL (     194 calls)

     Called by h_psi:
     h_psi:calbec :      0.31s CPU      0.38s WALL (     250 calls)
     vloc_psi     :      2.63s CPU      3.24s WALL (     250 calls)
     add_vuspsi   :      0.19s CPU      0.22s WALL (     250 calls)

     General routines
     calbec       :      0.42s CPU      0.52s WALL (     322 calls)
     fft          :      0.65s CPU      0.81s WALL (     205 calls)
     ffts         :      0.41s CPU      0.42s WALL (      27 calls)
     fftw         :      2.51s CPU      3.12s WALL (   19720 calls)
     interpolate  :      0.44s CPU      0.44s WALL (      14 calls)

     Parallel routines

     PAW routines
     PAW_pot      :      0.64s CPU      0.65s WALL (      14 calls)
     PAW_symme    :      0.01s CPU      0.03s WALL (      27 calls)

     PWSCF        :     10.28s CPU     12.21s WALL


   This run was terminated on:  12:40:50  11Oct2024            

=------------------------------------------------------------------------------=
   JOB DONE.
=------------------------------------------------------------------------------=
