
     Program Q2R v.7.2 starts on 14Oct2024 at  8:25:43 

     This program is part of the open-source Quantum ESPRESSO suite
     for quantum simulation of materials; please cite
         "P. Giannozzi et al., J. Phys.:Condens. Matter 21 395502 (2009);
         "P. Giannozzi et al., J. Phys.:Condens. Matter 29 465901 (2017);
         "P. Giannozzi et al., J. Chem. Phys. 152 154105 (2020);
          URL http://www.quantum-espresso.org", 
     in publications or presentations arising from this work. More details at
     http://www.quantum-espresso.org/quote

     Parallel version (MPI & OpenMP), running on       8 processor cores
     Number of MPI processes:                 8
     Threads/MPI process:                     1

     MPI processes distributed on     1 nodes
     R & G space division:  proc/nbgrp/npool/nimage =       8
     244194 MiB available memory on the printing compute node when the environment starts


  reading grid info from file IceIh.dyn0    

  reading force constants from file IceIh.dyn1
  Dielectric Tensor not found
  nqs=            1
 q=   0.00000000  0.00000000  0.00000000
  reading force constants from file IceIh.dyn2
  nqs=            2
 q=   0.00000000  0.00000000  0.26562500
 q=  -0.00000000 -0.00000000 -0.26562500
  reading force constants from file IceIh.dyn3
  nqs=            1
 q=   0.00000000  0.00000000 -0.53125000
  reading force constants from file IceIh.dyn4
  nqs=            6
 q=   0.00000000  0.28867514  0.00000000
 q=   0.00000000 -0.28867514  0.00000000
 q=  -0.25000000 -0.14433757  0.00000000
 q=   0.25000000 -0.14433757  0.00000000
 q=  -0.25000000  0.14433757  0.00000000
 q=   0.25000000  0.14433757  0.00000000
  reading force constants from file IceIh.dyn5
  nqs=           12
 q=   0.00000000  0.28867514  0.26562500
 q=  -0.00000000 -0.28867514 -0.26562500
 q=   0.00000000 -0.28867514  0.26562500
 q=  -0.00000000  0.28867514 -0.26562500
 q=  -0.25000000 -0.14433757  0.26562500
 q=   0.25000000  0.14433757 -0.26562500
 q=   0.25000000 -0.14433757  0.26562500
 q=  -0.25000000  0.14433757 -0.26562500
 q=  -0.25000000  0.14433757  0.26562500
 q=   0.25000000 -0.14433757 -0.26562500
 q=   0.25000000  0.14433757  0.26562500
 q=  -0.25000000 -0.14433757 -0.26562500
  reading force constants from file IceIh.dyn6
  nqs=            6
 q=   0.00000000  0.28867514 -0.53125000
 q=   0.00000000 -0.28867514 -0.53125000
 q=  -0.25000000 -0.14433757 -0.53125000
 q=   0.25000000 -0.14433757 -0.53125000
 q=  -0.25000000  0.14433757 -0.53125000
 q=   0.25000000  0.14433757 -0.53125000
  reading force constants from file IceIh.dyn7
  nqs=            3
 q=   0.00000000 -0.57735027  0.00000000
 q=   0.50000000  0.28867514  0.00000000
 q=  -0.50000000  0.28867514  0.00000000
  reading force constants from file IceIh.dyn8
  nqs=            6
 q=   0.00000000 -0.57735027  0.26562500
 q=  -0.00000000  0.57735027 -0.26562500
 q=   0.50000000  0.28867514  0.26562500
 q=  -0.50000000 -0.28867514 -0.26562500
 q=  -0.50000000  0.28867514  0.26562500
 q=   0.50000000 -0.28867514 -0.26562500
  reading force constants from file IceIh.dyn9
  nqs=            3
 q=   0.00000000 -0.57735027 -0.53125000
 q=   0.50000000  0.28867514 -0.53125000
 q=  -0.50000000  0.28867514 -0.53125000
  reading force constants from file IceIh.dyn10
  nqs=            6
 q=   0.25000000  0.43301270  0.00000000
 q=   0.25000000 -0.43301270  0.00000000
 q=  -0.25000000 -0.43301270  0.00000000
 q=  -0.50000000 -0.00000000  0.00000000
 q=  -0.25000000  0.43301270  0.00000000
 q=   0.50000000  0.00000000  0.00000000
  reading force constants from file IceIh.dyn11
  nqs=           12
 q=   0.25000000  0.43301270  0.26562500
 q=  -0.25000000 -0.43301270 -0.26562500
 q=   0.25000000 -0.43301270  0.26562500
 q=  -0.25000000  0.43301270 -0.26562500
 q=  -0.25000000 -0.43301270  0.26562500
 q=   0.25000000  0.43301270 -0.26562500
 q=  -0.50000000 -0.00000000  0.26562500
 q=   0.50000000  0.00000000 -0.26562500
 q=  -0.25000000  0.43301270  0.26562500
 q=   0.25000000 -0.43301270 -0.26562500
 q=   0.50000000  0.00000000  0.26562500
 q=  -0.50000000 -0.00000000 -0.26562500
  reading force constants from file IceIh.dyn12
  nqs=            6
 q=   0.25000000  0.43301270 -0.53125000
 q=   0.25000000 -0.43301270 -0.53125000
 q=  -0.25000000 -0.43301270 -0.53125000
 q=  -0.50000000 -0.00000000 -0.53125000
 q=  -0.25000000  0.43301270 -0.53125000
 q=   0.50000000  0.00000000 -0.53125000

      q-space grid ok, #points =   64

      fft-check success (sum of imaginary terms < 10^-12)

     Q2R          :      1.67s CPU      2.64s WALL


   This run was terminated on:   8:25:45  14Oct2024            

=------------------------------------------------------------------------------=
   JOB DONE.
=------------------------------------------------------------------------------=
