
     Program PWSCF v.7.2 starts on 11Oct2024 at  7:45:32 

     This program is part of the open-source Quantum ESPRESSO suite
     for quantum simulation of materials; please cite
         "P. Giannozzi et al., J. Phys.:Condens. Matter 21 395502 (2009);
         "P. Giannozzi et al., J. Phys.:Condens. Matter 29 465901 (2017);
         "P. Giannozzi et al., J. Chem. Phys. 152 154105 (2020);
          URL http://www.quantum-espresso.org", 
     in publications or presentations arising from this work. More details at
     http://www.quantum-espresso.org/quote

     Parallel version (MPI & OpenMP), running on       1 processor cores
     Number of MPI processes:                 1
     Threads/MPI process:                     1

     MPI processes distributed on     1 nodes
     228221 MiB available memory on the printing compute node when the environment starts

     Reading input from pw.in

     Current dimensions of program PWSCF are:
     Max number of different atomic species (ntypx) = 10
     Max number of k-points (npk) =  40000
     Max angular momentum in pseudopotentials (lmaxx) =  4
     file O.pbesol-n-kjpaw_psl.0.1.UPF: wavefunction(s)  2P renormalized
     Message from routine setup:
     using ibrav=0 with symmetry is DISCOURAGED, use correct ibrav instead

     Subspace diagonalization in iterative solution of the eigenvalue problem:
     a serial algorithm will be used


     G-vector sticks info
     --------------------
     sticks:   dense  smooth     PW     G-vecs:    dense   smooth      PW
     Sum        7231    3013    823               467251   125607   18051

     Using Slab Decomposition



     bravais-lattice index     =            0
     lattice parameter (alat)  =      14.7777  a.u.
     unit-cell volume          =    2630.3804 (a.u.)^3
     number of atoms/cell      =           36
     number of atomic types    =            2
     number of electrons       =        96.00
     number of Kohn-Sham states=           58
     kinetic-energy cutoff     =      50.0000  Ry
     charge density cutoff     =     480.0000  Ry
     scf convergence threshold =      7.2E-09
     mixing beta               =       0.4000
     number of iterations used =            8  plain     mixing
     energy convergence thresh.=      3.6E-04
     force convergence thresh. =      1.0E-04
     Exchange-correlation= SLA  PW   PSX  PSC
                           (   1   4  10   8   0   0   0)
     nstep                     =           50


     celldm(1)=  14.777658  celldm(2)=   0.000000  celldm(3)=   0.000000
     celldm(4)=   0.000000  celldm(5)=   0.000000  celldm(6)=   0.000000

     crystal axes: (cart. coord. in units of alat)
               a(1) = (   1.000000   0.000000   0.000000 )  
               a(2) = (  -0.500000   0.866025   0.000000 )  
               a(3) = (   0.000000   0.000000   0.941176 )  

     reciprocal axes: (cart. coord. in units 2 pi/alat)
               b(1) = (  1.000000  0.577350 -0.000000 )  
               b(2) = (  0.000000  1.154701  0.000000 )  
               b(3) = (  0.000000 -0.000000  1.062500 )  


     PseudoPot. # 1 for H  read from file:
     ./pseudo/H.pbesol-rrkjus_psl.1.0.0.UPF
     MD5 check sum: 0324ed591cc0147dc3d88cad0d33f665
     Pseudo is Ultrasoft, Zval =  1.0
     Generated using "atomic" code by A. Dal Corso  v.6.0 svn rev. 13079
     Using radial grid of  929 points,  2 beta functions with: 
                l(1) =   0
                l(2) =   0
     Q(r) pseudized with 0 coefficients 


     PseudoPot. # 2 for O  read from file:
     ./pseudo/O.pbesol-n-kjpaw_psl.0.1.UPF
     MD5 check sum: 81d73d1479e654e5638b0319f0d6c2c7
     Pseudo is Projector augmented-wave + core cor, Zval =  6.0
     Generated using "atomic" code by A. Dal Corso  v.6.0 svn rev. 13079
     Shape of augmentation charge: BESSEL
     Using radial grid of 1095 points,  4 beta functions with: 
                l(1) =   0
                l(2) =   0
                l(3) =   1
                l(4) =   1
     Q(r) pseudized with 0 coefficients 


     atomic species   valence    mass     pseudopotential
        H              1.00     1.00794     H ( 1.00)
        O              6.00    15.99940     O ( 1.00)

     12 Sym. Ops. (no inversion) found ( 6 have fractional translation)


                                    s                        frac. trans.

      isym =  1     identity                                     

 cryst.   s( 1) = (     1          0          0      )
                  (     0          1          0      )
                  (     0          0          1      )

 cart.    s( 1) = (  1.0000000  0.0000000  0.0000000 )
                  (  0.0000000  1.0000000  0.0000000 )
                  (  0.0000000  0.0000000  1.0000000 )


      isym =  2     180 deg rotation - cart. axis [0,0,1]        

 cryst.   s( 2) = (    -1          0          0      )    f =(  0.0000000 )
                  (     0         -1          0      )       (  0.0000000 )
                  (     0          0          1      )       (  0.5000000 )

 cart.    s( 2) = ( -1.0000000  0.0000000  0.0000000 )    f =(  0.0000000 )
                  (  0.0000000 -1.0000000  0.0000000 )       (  0.0000000 )
                  (  0.0000000  0.0000000  1.0000000 )       (  0.4705882 )


      isym =  3      60 deg rotation - cryst. axis [0,0,1]       

 cryst.   s( 3) = (     1          1          0      )    f =(  0.0000000 )
                  (    -1          0          0      )       (  0.0000000 )
                  (     0          0          1      )       (  0.5000000 )

 cart.    s( 3) = (  0.5000000 -0.8660254  0.0000000 )    f =(  0.0000000 )
                  (  0.8660254  0.5000000  0.0000000 )       (  0.0000000 )
                  (  0.0000000  0.0000000  1.0000000 )       (  0.4705882 )


      isym =  4      60 deg rotation - cryst. axis [0,0,-1]      

 cryst.   s( 4) = (     0         -1          0      )    f =(  0.0000000 )
                  (     1          1          0      )       (  0.0000000 )
                  (     0          0          1      )       (  0.5000000 )

 cart.    s( 4) = (  0.5000000  0.8660254  0.0000000 )    f =(  0.0000000 )
                  ( -0.8660254  0.5000000  0.0000000 )       (  0.0000000 )
                  (  0.0000000  0.0000000  1.0000000 )       (  0.4705882 )


      isym =  5     120 deg rotation - cryst. axis [0,0,1]       

 cryst.   s( 5) = (     0          1          0      )
                  (    -1         -1          0      )
                  (     0          0          1      )

 cart.    s( 5) = ( -0.5000000 -0.8660254  0.0000000 )
                  (  0.8660254 -0.5000000  0.0000000 )
                  (  0.0000000  0.0000000  1.0000000 )


      isym =  6     120 deg rotation - cryst. axis [0,0,-1]      

 cryst.   s( 6) = (    -1         -1          0      )
                  (     1          0          0      )
                  (     0          0          1      )

 cart.    s( 6) = ( -0.5000000  0.8660254  0.0000000 )
                  ( -0.8660254 -0.5000000  0.0000000 )
                  (  0.0000000  0.0000000  1.0000000 )


      isym =  7     inv. 180 deg rotation - cart. axis [0,1,0]   

 cryst.   s( 7) = (     1          0          0      )
                  (    -1         -1          0      )
                  (     0          0          1      )

 cart.    s( 7) = (  1.0000000  0.0000000  0.0000000 )
                  (  0.0000000 -1.0000000  0.0000000 )
                  (  0.0000000  0.0000000  1.0000000 )


      isym =  8     inv. 180 deg rotation - cart. axis [1,0,0]   

 cryst.   s( 8) = (    -1          0          0      )    f =(  0.0000000 )
                  (     1          1          0      )       (  0.0000000 )
                  (     0          0          1      )       (  0.5000000 )

 cart.    s( 8) = ( -1.0000000  0.0000000  0.0000000 )    f =(  0.0000000 )
                  (  0.0000000  1.0000000  0.0000000 )       (  0.0000000 )
                  (  0.0000000  0.0000000  1.0000000 )       (  0.4705882 )


      isym =  9     inv. 180 deg rotation - cryst. axis [1,-1,0] 

 cryst.   s( 9) = (     0          1          0      )
                  (     1          0          0      )
                  (     0          0          1      )

 cart.    s( 9) = ( -0.5000000  0.8660254  0.0000000 )
                  (  0.8660254  0.5000000  0.0000000 )
                  (  0.0000000  0.0000000  1.0000000 )


      isym = 10     inv. 180 deg rotation - cryst. axis [2,1,0]  

 cryst.   s(10) = (    -1         -1          0      )
                  (     0          1          0      )
                  (     0          0          1      )

 cart.    s(10) = ( -0.5000000 -0.8660254  0.0000000 )
                  ( -0.8660254  0.5000000  0.0000000 )
                  (  0.0000000  0.0000000  1.0000000 )


      isym = 11     inv. 180 deg rotation - cryst. axis [0,1,0]  

 cryst.   s(11) = (     1          1          0      )    f =(  0.0000000 )
                  (     0         -1          0      )       (  0.0000000 )
                  (     0          0          1      )       (  0.5000000 )

 cart.    s(11) = (  0.5000000  0.8660254  0.0000000 )    f =(  0.0000000 )
                  (  0.8660254 -0.5000000  0.0000000 )       (  0.0000000 )
                  (  0.0000000  0.0000000  1.0000000 )       (  0.4705882 )


      isym = 12     inv. 180 deg rotation - cryst. axis [1,1,0]  

 cryst.   s(12) = (     0         -1          0      )    f =(  0.0000000 )
                  (    -1          0          0      )       (  0.0000000 )
                  (     0          0          1      )       (  0.5000000 )

 cart.    s(12) = (  0.5000000 -0.8660254  0.0000000 )    f =(  0.0000000 )
                  ( -0.8660254 -0.5000000  0.0000000 )       (  0.0000000 )
                  (  0.0000000  0.0000000  1.0000000 )       (  0.4705882 )


   Cartesian axes

     site n.     atom                  positions (alat units)
         1           O   tau(   1) = (   0.1666500   0.2886463   0.5294118  )
         2           O   tau(   2) = (   0.6667000   0.0000000   0.5294118  )
         3           O   tau(   3) = (  -0.3333500   0.5773791   0.5294118  )
         4           O   tau(   4) = (   0.3333500   0.5773791   0.0588235  )
         5           O   tau(   5) = (   0.3333000   0.0000000   0.0588235  )
         6           O   tau(   6) = (  -0.1666500   0.2886463   0.0588235  )
         7           O   tau(   7) = (   0.3333500   0.5773791   0.4117647  )
         8           O   tau(   8) = (   0.3333000   0.0000000   0.4117647  )
         9           O   tau(   9) = (  -0.1666500   0.2886463   0.4117647  )
        10           O   tau(  10) = (   0.1666500   0.2886463   0.8823529  )
        11           O   tau(  11) = (   0.6667000   0.0000000   0.8823529  )
        12           O   tau(  12) = (  -0.3333500   0.5773791   0.8823529  )
        13           H   tau(  13) = (   0.1666500   0.2886463   0.6343529  )
        14           H   tau(  14) = (   0.6667000   0.0000000   0.6343529  )
        15           H   tau(  15) = (  -0.3333500   0.5773791   0.6343529  )
        16           H   tau(  16) = (   0.3333500   0.5773791   0.1637647  )
        17           H   tau(  17) = (   0.3333000   0.0000000   0.1637647  )
        18           H   tau(  18) = (  -0.1666500   0.2886463   0.1637647  )
        19           H   tau(  19) = (   0.2190000   0.3793191   0.4950588  )
        20           H   tau(  20) = (   0.5620000   0.0000000   0.4950588  )
        21           H   tau(  21) = (  -0.2810000   0.4867063   0.4950588  )
        22           H   tau(  22) = (   0.2810000   0.4867063   0.0244706  )
        23           H   tau(  23) = (   0.4380000   0.0000000   0.0244706  )
        24           H   tau(  24) = (  -0.2190000   0.3793191   0.0244706  )
        25           H   tau(  25) = (   0.4385000   0.5776389   0.4470588  )
        26           H   tau(  26) = (   0.2805000   0.0909327   0.4470588  )
        27           H   tau(  27) = (   0.7810000   0.1974538   0.4470588  )
        28           H   tau(  28) = (   0.2810000   0.6685716   0.4470588  )
        29           H   tau(  29) = (  -0.0615000   0.2883865   0.4470588  )
        30           H   tau(  30) = (  -0.2195000   0.7750927   0.4470588  )
        31           H   tau(  31) = (   0.0615000   0.2883865   0.9176471  )
        32           H   tau(  32) = (   0.2195000   0.7750927   0.9176471  )
        33           H   tau(  33) = (  -0.2810000   0.6685716   0.9176471  )
        34           H   tau(  34) = (   0.2190000   0.1974538   0.9176471  )
        35           H   tau(  35) = (   0.5615000   0.5776389   0.9176471  )
        36           H   tau(  36) = (   0.7195000   0.0909327   0.9176471  )

   Crystallographic axes

     site n.     atom                  positions (cryst. coord.)
         1           O   tau(   1) = (  0.3333000  0.3333000  0.5625000  )
         2           O   tau(   2) = (  0.6667000  0.0000000  0.5625000  )
         3           O   tau(   3) = (  0.0000000  0.6667000  0.5625000  )
         4           O   tau(   4) = (  0.6667000  0.6667000  0.0625000  )
         5           O   tau(   5) = (  0.3333000  0.0000000  0.0625000  )
         6           O   tau(   6) = (  0.0000000  0.3333000  0.0625000  )
         7           O   tau(   7) = (  0.6667000  0.6667000  0.4375000  )
         8           O   tau(   8) = (  0.3333000  0.0000000  0.4375000  )
         9           O   tau(   9) = (  0.0000000  0.3333000  0.4375000  )
        10           O   tau(  10) = (  0.3333000  0.3333000  0.9375000  )
        11           O   tau(  11) = (  0.6667000  0.0000000  0.9375000  )
        12           O   tau(  12) = (  0.0000000  0.6667000  0.9375000  )
        13           H   tau(  13) = (  0.3333000  0.3333000  0.6740000  )
        14           H   tau(  14) = (  0.6667000  0.0000000  0.6740000  )
        15           H   tau(  15) = (  0.0000000  0.6667000  0.6740000  )
        16           H   tau(  16) = (  0.6667000  0.6667000  0.1740000  )
        17           H   tau(  17) = (  0.3333000  0.0000000  0.1740000  )
        18           H   tau(  18) = (  0.0000000  0.3333000  0.1740000  )
        19           H   tau(  19) = (  0.4380000  0.4380000  0.5260000  )
        20           H   tau(  20) = (  0.5620000  0.0000000  0.5260000  )
        21           H   tau(  21) = (  0.0000000  0.5620000  0.5260000  )
        22           H   tau(  22) = (  0.5620000  0.5620000  0.0260000  )
        23           H   tau(  23) = (  0.4380000  0.0000000  0.0260000  )
        24           H   tau(  24) = (  0.0000000  0.4380000  0.0260000  )
        25           H   tau(  25) = (  0.7720000  0.6670000  0.4750000  )
        26           H   tau(  26) = (  0.3330000  0.1050000  0.4750000  )
        27           H   tau(  27) = (  0.8950000  0.2280000  0.4750000  )
        28           H   tau(  28) = (  0.6670000  0.7720000  0.4750000  )
        29           H   tau(  29) = (  0.1050000  0.3330000  0.4750000  )
        30           H   tau(  30) = (  0.2280000  0.8950000  0.4750000  )
        31           H   tau(  31) = (  0.2280000  0.3330000  0.9750000  )
        32           H   tau(  32) = (  0.6670000  0.8950000  0.9750000  )
        33           H   tau(  33) = (  0.1050000  0.7720000  0.9750000  )
        34           H   tau(  34) = (  0.3330000  0.2280000  0.9750000  )
        35           H   tau(  35) = (  0.8950000  0.6670000  0.9750000  )
        36           H   tau(  36) = (  0.7720000  0.1050000  0.9750000  )

     number of k points=     4  Marzari-Vanderbilt smearing, width (Ry)=  0.0147
                       cart. coord. in units 2pi/alat
        k(    1) = (   0.0000000   0.0000000   0.0000000), wk =   0.2500000
        k(    2) = (   0.0000000   0.0000000  -0.5312500), wk =   0.2500000
        k(    3) = (   0.0000000  -0.5773503   0.0000000), wk =   0.7500000
        k(    4) = (   0.0000000  -0.5773503  -0.5312500), wk =   0.7500000

                       cryst. coord.
        k(    1) = (   0.0000000   0.0000000   0.0000000), wk =   0.2500000
        k(    2) = (   0.0000000   0.0000000  -0.5000000), wk =   0.2500000
        k(    3) = (   0.0000000  -0.5000000   0.0000000), wk =   0.7500000
        k(    4) = (   0.0000000  -0.5000000  -0.5000000), wk =   0.7500000

     Dense  grid:   467251 G-vectors     FFT dimensions: ( 108, 108, 100)

     Smooth grid:   125607 G-vectors     FFT dimensions: (  72,  72,  64)

     Dynamical RAM for                 wfc:      13.90 MB

     Dynamical RAM for     wfc (w. buffer):      69.49 MB

     Dynamical RAM for           str. fact:      14.26 MB

     Dynamical RAM for           local pot:       0.00 MB

     Dynamical RAM for          nlocal pot:      34.51 MB

     Dynamical RAM for                qrad:       1.00 MB

     Dynamical RAM for          rho,v,vnew:      48.09 MB

     Dynamical RAM for               rhoin:      16.03 MB

     Dynamical RAM for            rho*nmix:     114.07 MB

     Dynamical RAM for           G-vectors:      27.69 MB

     Dynamical RAM for          h,s,v(r/c):       0.62 MB

     Dynamical RAM for          <psi|beta>:       0.13 MB

     Dynamical RAM for                 psi:      27.80 MB

     Dynamical RAM for                hpsi:      27.80 MB

     Dynamical RAM for                spsi:      27.80 MB

     Dynamical RAM for      wfcinit/wfcrot:      34.63 MB

     Dynamical RAM for           addusdens:     477.69 MB

     Dynamical RAM for          addusforce:     809.24 MB

     Dynamical RAM for         addusstress:     356.48 MB

     Estimated static dynamical RAM per process >     276.95 MB

     Estimated max dynamical RAM per process >       1.17 GB

     Initial potential from superposition of free atoms

     starting charge      95.9997, renormalised to      96.0000
     Starting wfcs are   72 randomized atomic wfcs
     Checking if some PAW data can be deallocated... 

     total cpu time spent up to now is        5.7 secs

     per-process dynamical memory:   321.7 Mb

     Self-consistent Calculation

     iteration #  1     ecut=    50.00 Ry     beta= 0.40
     Davidson diagonalization with overlap

---- Real-time Memory Report at c_bands before calling an iterative solver
           582 MiB given to the printing process from OS
           314 MiB allocation reported by mallinfo(arena+hblkhd)
        227919 MiB available memory on the node where the printing process lives
------------------
     ethr =  1.00E-02,  avg # of iterations =  4.5

     total cpu time spent up to now is       12.3 secs

     total energy              =    -520.68271096 Ry
     estimated scf accuracy    <       5.64171889 Ry

     iteration #  2     ecut=    50.00 Ry     beta= 0.40
     Davidson diagonalization with overlap

---- Real-time Memory Report at c_bands before calling an iterative solver
           762 MiB given to the printing process from OS
           372 MiB allocation reported by mallinfo(arena+hblkhd)
        227881 MiB available memory on the node where the printing process lives
------------------
     ethr =  5.88E-03,  avg # of iterations =  2.0

     total cpu time spent up to now is       17.6 secs

     total energy              =    -521.66123637 Ry
     estimated scf accuracy    <       0.26269910 Ry

     iteration #  3     ecut=    50.00 Ry     beta= 0.40
     Davidson diagonalization with overlap

---- Real-time Memory Report at c_bands before calling an iterative solver
           766 MiB given to the printing process from OS
           376 MiB allocation reported by mallinfo(arena+hblkhd)
        227880 MiB available memory on the node where the printing process lives
------------------
     ethr =  2.74E-04,  avg # of iterations =  7.2

     total cpu time spent up to now is       23.3 secs

     total energy              =    -521.64882053 Ry
     estimated scf accuracy    <       0.09564481 Ry

     iteration #  4     ecut=    50.00 Ry     beta= 0.40
     Davidson diagonalization with overlap

---- Real-time Memory Report at c_bands before calling an iterative solver
           770 MiB given to the printing process from OS
           380 MiB allocation reported by mallinfo(arena+hblkhd)
        227880 MiB available memory on the node where the printing process lives
------------------
     ethr =  9.96E-05,  avg # of iterations =  2.0

     total cpu time spent up to now is       29.0 secs

     total energy              =    -521.65585560 Ry
     estimated scf accuracy    <       0.02040096 Ry

     iteration #  5     ecut=    50.00 Ry     beta= 0.40
     Davidson diagonalization with overlap

---- Real-time Memory Report at c_bands before calling an iterative solver
           774 MiB given to the printing process from OS
           384 MiB allocation reported by mallinfo(arena+hblkhd)
        227876 MiB available memory on the node where the printing process lives
------------------
     ethr =  2.13E-05,  avg # of iterations =  5.8

     total cpu time spent up to now is       34.6 secs

     total energy              =    -521.65776851 Ry
     estimated scf accuracy    <       0.00077118 Ry

     iteration #  6     ecut=    50.00 Ry     beta= 0.40
     Davidson diagonalization with overlap

---- Real-time Memory Report at c_bands before calling an iterative solver
           778 MiB given to the printing process from OS
           388 MiB allocation reported by mallinfo(arena+hblkhd)
        227876 MiB available memory on the node where the printing process lives
------------------
     ethr =  8.03E-07,  avg # of iterations =  7.5

     total cpu time spent up to now is       41.3 secs

     total energy              =    -521.65811274 Ry
     estimated scf accuracy    <       0.00045732 Ry

     iteration #  7     ecut=    50.00 Ry     beta= 0.40
     Davidson diagonalization with overlap

---- Real-time Memory Report at c_bands before calling an iterative solver
           781 MiB given to the printing process from OS
           391 MiB allocation reported by mallinfo(arena+hblkhd)
        227874 MiB available memory on the node where the printing process lives
------------------
     ethr =  4.76E-07,  avg # of iterations =  2.0

     total cpu time spent up to now is       46.7 secs

     total energy              =    -521.65819393 Ry
     estimated scf accuracy    <       0.00000206 Ry

     iteration #  8     ecut=    50.00 Ry     beta= 0.40
     Davidson diagonalization with overlap

---- Real-time Memory Report at c_bands before calling an iterative solver
           785 MiB given to the printing process from OS
           395 MiB allocation reported by mallinfo(arena+hblkhd)
        227868 MiB available memory on the node where the printing process lives
------------------
     ethr =  2.15E-09,  avg # of iterations =  4.0

     total cpu time spent up to now is       53.2 secs

     total energy              =    -521.65819582 Ry
     estimated scf accuracy    <       0.00000232 Ry

     iteration #  9     ecut=    50.00 Ry     beta= 0.40
     Davidson diagonalization with overlap

---- Real-time Memory Report at c_bands before calling an iterative solver
           789 MiB given to the printing process from OS
           399 MiB allocation reported by mallinfo(arena+hblkhd)
        227864 MiB available memory on the node where the printing process lives
------------------
     ethr =  2.15E-09,  avg # of iterations =  1.0

     total cpu time spent up to now is       57.5 secs

     total energy              =    -521.65819577 Ry
     estimated scf accuracy    <       0.00000073 Ry

     iteration # 10     ecut=    50.00 Ry     beta= 0.40
     Davidson diagonalization with overlap

---- Real-time Memory Report at c_bands before calling an iterative solver
           793 MiB given to the printing process from OS
           403 MiB allocation reported by mallinfo(arena+hblkhd)
        227861 MiB available memory on the node where the printing process lives
------------------
     ethr =  7.60E-10,  avg # of iterations =  2.0

     total cpu time spent up to now is       62.2 secs

     total energy              =    -521.65819566 Ry
     estimated scf accuracy    <       0.00000028 Ry

     iteration # 11     ecut=    50.00 Ry     beta= 0.40
     Davidson diagonalization with overlap

---- Real-time Memory Report at c_bands before calling an iterative solver
           793 MiB given to the printing process from OS
           403 MiB allocation reported by mallinfo(arena+hblkhd)
        227859 MiB available memory on the node where the printing process lives
------------------
     ethr =  2.88E-10,  avg # of iterations =  2.0

     total cpu time spent up to now is       67.5 secs

     End of self-consistent calculation

          k = 0.0000 0.0000 0.0000 ( 15715 PWs)   bands (ev):

   -23.4307 -23.2181 -23.1500 -23.1500 -23.1462 -23.1462 -22.5881 -22.5881
   -22.5842 -22.5842 -22.5128 -22.2786 -10.9593 -10.9344 -10.9344 -10.9116
   -10.9116 -10.8950 -10.7348 -10.6694 -10.6552 -10.6552 -10.6322 -10.6322
    -7.1936  -6.6813  -6.4289  -6.4289  -6.1899  -6.1899  -5.8537  -5.8537
    -5.5820  -5.5820  -5.4828  -4.9202  -4.2647  -4.2647  -4.2244  -4.2244
    -4.1649  -4.1130  -4.0263  -3.9678  -3.9482  -3.9482  -3.8985  -3.8985
     2.2844   5.1347   5.1444   5.1657   5.4507   5.9653   5.9653   5.9737
     5.9738   6.7101

     occupation numbers 
     1.0000   1.0000   1.0000   1.0000   1.0000   1.0000   1.0000   1.0000
     1.0000   1.0000   1.0000   1.0000   1.0000   1.0000   1.0000   1.0000
     1.0000   1.0000   1.0000   1.0000   1.0000   1.0000   1.0000   1.0000
     1.0000   1.0000   1.0000   1.0000   1.0000   1.0000   1.0000   1.0000
     1.0000   1.0000   1.0000   1.0000   1.0000   1.0000   1.0000   1.0000
     1.0000   1.0000   1.0000   1.0000   1.0000   1.0000   1.0000   1.0000
     0.0000   0.0000   0.0000   0.0000   0.0000   0.0000   0.0000   0.0000
     0.0000   0.0000

          k = 0.0000 0.0000-0.5312 ( 15740 PWs)   bands (ev):

   -23.3373 -23.3373 -23.1475 -23.1475 -23.1475 -23.1475 -22.5869 -22.5869
   -22.5869 -22.5869 -22.3829 -22.3829 -10.9261 -10.9261 -10.9190 -10.9190
   -10.9190 -10.9190 -10.7023 -10.7023 -10.6443 -10.6443 -10.6443 -10.6443
    -6.9651  -6.9651  -6.3396  -6.3396  -6.3396  -6.3396  -5.6922  -5.6922
    -5.6922  -5.6922  -5.1803  -5.1803  -4.2468  -4.2468  -4.2468  -4.2468
    -4.1387  -4.1387  -4.0126  -4.0126  -3.9314  -3.9314  -3.9314  -3.9314
     3.1890   3.1890   5.6186   5.6186   5.6306   5.6306   6.3728   6.3728
     6.3728   6.3728

     occupation numbers 
     1.0000   1.0000   1.0000   1.0000   1.0000   1.0000   1.0000   1.0000
     1.0000   1.0000   1.0000   1.0000   1.0000   1.0000   1.0000   1.0000
     1.0000   1.0000   1.0000   1.0000   1.0000   1.0000   1.0000   1.0000
     1.0000   1.0000   1.0000   1.0000   1.0000   1.0000   1.0000   1.0000
     1.0000   1.0000   1.0000   1.0000   1.0000   1.0000   1.0000   1.0000
     1.0000   1.0000   1.0000   1.0000   1.0000   1.0000   1.0000   1.0000
     0.0000   0.0000   0.0000   0.0000   0.0000   0.0000   0.0000   0.0000
     0.0000   0.0000

          k = 0.0000-0.5774 0.0000 ( 15704 PWs)   bands (ev):

   -23.3239 -23.3218 -23.2245 -23.1446 -23.1433 -23.1155 -22.6208 -22.5925
   -22.5900 -22.5046 -22.3996 -22.3962 -10.9495 -10.9484 -10.9436 -10.9110
   -10.9078 -10.8859 -10.6931 -10.6837 -10.6686 -10.6604 -10.6442 -10.6255
    -6.9571  -6.8173  -6.6103  -6.4166  -6.3022  -6.1221  -5.9371  -5.7660
    -5.7165  -5.4143  -5.2250  -5.1242  -4.2643  -4.2564  -4.2541  -4.2432
    -4.1445  -4.0808  -4.0579  -4.0172  -3.9392  -3.9068  -3.9029  -3.8983
     3.3624   3.3635   4.9068   5.1459   5.5359   5.5416   6.2183   6.3653
     6.3838   6.7933

     occupation numbers 
     1.0000   1.0000   1.0000   1.0000   1.0000   1.0000   1.0000   1.0000
     1.0000   1.0000   1.0000   1.0000   1.0000   1.0000   1.0000   1.0000
     1.0000   1.0000   1.0000   1.0000   1.0000   1.0000   1.0000   1.0000
     1.0000   1.0000   1.0000   1.0000   1.0000   1.0000   1.0000   1.0000
     1.0000   1.0000   1.0000   1.0000   1.0000   1.0000   1.0000   1.0000
     1.0000   1.0000   1.0000   1.0000   1.0000   1.0000   1.0000   1.0000
     0.0000   0.0000   0.0000   0.0000   0.0000   0.0000   0.0000   0.0000
     0.0000   0.0000

          k = 0.0000-0.5774-0.5312 ( 15680 PWs)   bands (ev):

   -23.2454 -23.2454 -23.2436 -23.2436 -23.1747 -23.1747 -22.5582 -22.5582
   -22.4850 -22.4850 -22.4820 -22.4820 -10.9255 -10.9255 -10.9248 -10.9248
   -10.9135 -10.9135 -10.6776 -10.6776 -10.6638 -10.6638 -10.6481 -10.6481
    -6.7414  -6.7414  -6.6151  -6.6151  -6.4442  -6.4442  -5.5996  -5.5996
    -5.4457  -5.4457  -5.3774  -5.3774  -4.2603  -4.2603  -4.2483  -4.2483
    -4.1127  -4.1127  -4.0446  -4.0446  -3.9305  -3.9305  -3.9166  -3.9166
     4.1147   4.1147   4.1178   4.1178   5.3477   5.3477   5.9046   5.9046
     7.5410   7.5420

     occupation numbers 
     1.0000   1.0000   1.0000   1.0000   1.0000   1.0000   1.0000   1.0000
     1.0000   1.0000   1.0000   1.0000   1.0000   1.0000   1.0000   1.0000
     1.0000   1.0000   1.0000   1.0000   1.0000   1.0000   1.0000   1.0000
     1.0000   1.0000   1.0000   1.0000   1.0000   1.0000   1.0000   1.0000
     1.0000   1.0000   1.0000   1.0000   1.0000   1.0000   1.0000   1.0000
     1.0000   1.0000   1.0000   1.0000   1.0000   1.0000   1.0000   1.0000
     0.0000   0.0000   0.0000   0.0000   0.0000   0.0000   0.0000   0.0000
     0.0000   0.0000

     the Fermi energy is     0.7989 ev

!    total energy              =    -521.65819571 Ry
     estimated scf accuracy    <          5.0E-09 Ry
     smearing contrib. (-TS)   =      -0.00000000 Ry
     internal energy E=F+TS    =    -521.65819571 Ry

     The total energy is F=E-TS. E is the sum of the following terms:
     one-electron contribution =    -384.77357690 Ry
     hartree contribution      =     222.33440969 Ry
     xc contribution           =    -107.87114559 Ry
     ewald contribution        =    -142.34817868 Ry
     one-center paw contrib.   =    -108.99970423 Ry
      -> PAW hartree energy AE =     379.26878064 Ry
      -> PAW hartree energy PS =    -377.38158992 Ry
      -> PAW xc energy AE      =    -204.63538131 Ry
      -> PAW xc energy PS      =      93.74848636 Ry
      -> total E_H with PAW    =     224.22160041 Ry
      -> total E_XC with PAW   =    -218.75804054 Ry

     convergence has been achieved in  11 iterations

     Forces acting on atoms (cartesian axes, Ry/au):

     atom    1 type  2   force =    -0.15309465   -0.26516771   -0.41198098
     atom    2 type  2   force =     0.30618930   -0.00000000   -0.41198098
     atom    3 type  2   force =    -0.15309465    0.26516771   -0.41198098
     atom    4 type  2   force =     0.15309465    0.26516771   -0.41198098
     atom    5 type  2   force =    -0.30618930   -0.00000000   -0.41198098
     atom    6 type  2   force =     0.15309465   -0.26516771   -0.41198098
     atom    7 type  2   force =    -0.14882413   -0.25777095   -0.19855013
     atom    8 type  2   force =     0.29764826    0.00000000   -0.19855013
     atom    9 type  2   force =    -0.14882413    0.25777095   -0.19855013
     atom   10 type  2   force =     0.14882413    0.25777095   -0.19855013
     atom   11 type  2   force =    -0.29764826   -0.00000000   -0.19855013
     atom   12 type  2   force =     0.14882413   -0.25777095   -0.19855013
     atom   13 type  1   force =    -0.00459050   -0.00795098    0.52607898
     atom   14 type  1   force =     0.00918100    0.00000000    0.52607898
     atom   15 type  1   force =    -0.00459050    0.00795098    0.52607898
     atom   16 type  1   force =     0.00459050    0.00795098    0.52607898
     atom   17 type  1   force =    -0.00918100    0.00000000    0.52607898
     atom   18 type  1   force =     0.00459050   -0.00795098    0.52607898
     atom   19 type  1   force =     0.15932740    0.27596315   -0.11556559
     atom   20 type  1   force =    -0.31865479   -0.00000000   -0.11556559
     atom   21 type  1   force =     0.15932740   -0.27596315   -0.11556559
     atom   22 type  1   force =    -0.15932740   -0.27596315   -0.11556559
     atom   23 type  1   force =     0.31865479    0.00000000   -0.11556559
     atom   24 type  1   force =    -0.15932740    0.27596315   -0.11556559
     atom   25 type  1   force =     0.29646036    0.00138559    0.10000886
     atom   26 type  1   force =    -0.14943014    0.25604941    0.10000886
     atom   27 type  1   force =    -0.14703023   -0.25743500    0.10000886
     atom   28 type  1   force =    -0.14703023    0.25743500    0.10000886
     atom   29 type  1   force =     0.29646036   -0.00138559    0.10000886
     atom   30 type  1   force =    -0.14943014   -0.25604941    0.10000886
     atom   31 type  1   force =    -0.29646036   -0.00138559    0.10000886
     atom   32 type  1   force =     0.14943014   -0.25604941    0.10000886
     atom   33 type  1   force =     0.14703023    0.25743500    0.10000886
     atom   34 type  1   force =     0.14703023   -0.25743500    0.10000886
     atom   35 type  1   force =    -0.29646036    0.00138559    0.10000886
     atom   36 type  1   force =     0.14943014    0.25604941    0.10000886
     The non-local contrib.  to forces
     atom    1 type  2   force =     0.73196665    1.26780343    1.03697958
     atom    2 type  2   force =    -1.46393330    0.00000000    1.03697958
     atom    3 type  2   force =     0.73196665   -1.26780343    1.03697958
     atom    4 type  2   force =    -0.73196665   -1.26780343    1.03697958
     atom    5 type  2   force =     1.46393330   -0.00000000    1.03697958
     atom    6 type  2   force =    -0.73196665    1.26780343    1.03697958
     atom    7 type  2   force =     0.74260264    1.28622551    1.00418974
     atom    8 type  2   force =    -1.48520529   -0.00000000    1.00418974
     atom    9 type  2   force =     0.74260264   -1.28622551    1.00418974
     atom   10 type  2   force =    -0.74260264   -1.28622551    1.00418974
     atom   11 type  2   force =     1.48520529   -0.00000000    1.00418974
     atom   12 type  2   force =    -0.74260264    1.28622551    1.00418974
     atom   13 type  1   force =     0.00170052    0.00294538   -0.18609291
     atom   14 type  1   force =    -0.00340103    0.00000000   -0.18609291
     atom   15 type  1   force =     0.00170052   -0.00294538   -0.18609291
     atom   16 type  1   force =    -0.00170052   -0.00294538   -0.18609291
     atom   17 type  1   force =     0.00340103    0.00000000   -0.18609291
     atom   18 type  1   force =    -0.00170052    0.00294538   -0.18609291
     atom   19 type  1   force =    -0.07605195   -0.13172584    0.05354042
     atom   20 type  1   force =     0.15210390   -0.00000000    0.05354042
     atom   21 type  1   force =    -0.07605195    0.13172584    0.05354042
     atom   22 type  1   force =     0.07605195    0.13172584    0.05354042
     atom   23 type  1   force =    -0.15210390    0.00000000    0.05354042
     atom   24 type  1   force =     0.07605195   -0.13172584    0.05354042
     atom   25 type  1   force =    -0.15026956    0.00290175   -0.04845004
     atom   26 type  1   force =     0.07262179   -0.13158813   -0.04845004
     atom   27 type  1   force =     0.07764776    0.12868638   -0.04845004
     atom   28 type  1   force =     0.07764776   -0.12868638   -0.04845004
     atom   29 type  1   force =    -0.15026956   -0.00290175   -0.04845004
     atom   30 type  1   force =     0.07262179    0.13158813   -0.04845004
     atom   31 type  1   force =     0.15026956   -0.00290175   -0.04845004
     atom   32 type  1   force =    -0.07262179    0.13158813   -0.04845004
     atom   33 type  1   force =    -0.07764776   -0.12868638   -0.04845004
     atom   34 type  1   force =    -0.07764776    0.12868638   -0.04845004
     atom   35 type  1   force =     0.15026956    0.00290175   -0.04845004
     atom   36 type  1   force =    -0.07262179   -0.13158813   -0.04845004
     The ionic contribution  to forces
     atom    1 type  2   force =    -1.77412043   -3.07286673   -3.05473134
     atom    2 type  2   force =     3.54824087    0.00000000   -3.05473134
     atom    3 type  2   force =    -1.77412043    3.07286673   -3.05473134
     atom    4 type  2   force =     1.77412043    3.07286673   -3.05473134
     atom    5 type  2   force =    -3.54824087   -0.00000000   -3.05473134
     atom    6 type  2   force =     1.77412043   -3.07286673   -3.05473134
     atom    7 type  2   force =    -1.75929383   -3.04718629   -2.45645107
     atom    8 type  2   force =     3.51858765   -0.00000000   -2.45645107
     atom    9 type  2   force =    -1.75929383    3.04718629   -2.45645107
     atom   10 type  2   force =     1.75929383    3.04718629   -2.45645107
     atom   11 type  2   force =    -3.51858765    0.00000000   -2.45645107
     atom   12 type  2   force =     1.75929383   -3.04718629   -2.45645107
     atom   13 type  1   force =    -0.05248292   -0.09090309    4.51363720
     atom   14 type  1   force =     0.10496585   -0.00000000    4.51363720
     atom   15 type  1   force =    -0.05248292    0.09090309    4.51363720
     atom   16 type  1   force =     0.05248292    0.09090309    4.51363720
     atom   17 type  1   force =    -0.10496585   -0.00000000    4.51363720
     atom   18 type  1   force =     0.05248292   -0.09090309    4.51363720
     atom   19 type  1   force =     1.88240650    3.26042369   -1.33989284
     atom   20 type  1   force =    -3.76481299    0.00000000   -1.33989284
     atom   21 type  1   force =     1.88240650   -3.26042369   -1.33989284
     atom   22 type  1   force =    -1.88240650   -3.26042369   -1.33989284
     atom   23 type  1   force =     3.76481299    0.00000000   -1.33989284
     atom   24 type  1   force =    -1.88240650    3.26042369   -1.33989284
     atom   25 type  1   force =     3.72133280   -0.06509833    1.16871903
     atom   26 type  1   force =    -1.80428959    3.25531791    1.16871903
     atom   27 type  1   force =    -1.91704321   -3.19021958    1.16871903
     atom   28 type  1   force =    -1.91704321    3.19021958    1.16871903
     atom   29 type  1   force =     3.72133280    0.06509833    1.16871903
     atom   30 type  1   force =    -1.80428959   -3.25531791    1.16871903
     atom   31 type  1   force =    -3.72133280    0.06509833    1.16871903
     atom   32 type  1   force =     1.80428959   -3.25531791    1.16871903
     atom   33 type  1   force =     1.91704321    3.19021958    1.16871903
     atom   34 type  1   force =     1.91704321   -3.19021958    1.16871903
     atom   35 type  1   force =    -3.72133280   -0.06509833    1.16871903
     atom   36 type  1   force =     1.80428959    3.25531791    1.16871903
     The local contribution  to forces
     atom    1 type  2   force =     0.89325779    1.54716787    1.60996700
     atom    2 type  2   force =    -1.78651557    0.00000000    1.60996700
     atom    3 type  2   force =     0.89325779   -1.54716787    1.60996700
     atom    4 type  2   force =    -0.89325779   -1.54716787    1.60996700
     atom    5 type  2   force =     1.78651557    0.00000000    1.60996700
     atom    6 type  2   force =    -0.89325779    1.54716787    1.60996700
     atom    7 type  2   force =     0.87234801    1.51095108    1.25979279
     atom    8 type  2   force =    -1.74469602    0.00000000    1.25979279
     atom    9 type  2   force =     0.87234801   -1.51095108    1.25979279
     atom   10 type  2   force =    -0.87234801   -1.51095108    1.25979279
     atom   11 type  2   force =     1.74469602    0.00000000    1.25979279
     atom   12 type  2   force =    -0.87234801    1.51095108    1.25979279
     atom   13 type  1   force =     0.04619102    0.08000519   -3.80147857
     atom   14 type  1   force =    -0.09238204    0.00000000   -3.80147857
     atom   15 type  1   force =     0.04619102   -0.08000519   -3.80147857
     atom   16 type  1   force =    -0.04619102   -0.08000519   -3.80147857
     atom   17 type  1   force =     0.09238204    0.00000000   -3.80147857
     atom   18 type  1   force =    -0.04619102    0.08000519   -3.80147857
     atom   19 type  1   force =    -1.64703040   -2.85274034    1.17078008
     atom   20 type  1   force =     3.29406080    0.00000000    1.17078008
     atom   21 type  1   force =    -1.64703040    2.85274034    1.17078008
     atom   22 type  1   force =     1.64703040    2.85274034    1.17078008
     atom   23 type  1   force =    -3.29406080    0.00000000    1.17078008
     atom   24 type  1   force =     1.64703040   -2.85274034    1.17078008
     atom   25 type  1   force =    -3.27460215    0.06358252   -1.02026712
     atom   26 type  1   force =     1.58223700   -2.86767991   -1.02026712
     atom   27 type  1   force =     1.69236515    2.80409739   -1.02026712
     atom   28 type  1   force =     1.69236515   -2.80409739   -1.02026712
     atom   29 type  1   force =    -3.27460215   -0.06358252   -1.02026712
     atom   30 type  1   force =     1.58223700    2.86767991   -1.02026712
     atom   31 type  1   force =     3.27460215   -0.06358252   -1.02026712
     atom   32 type  1   force =    -1.58223700    2.86767991   -1.02026712
     atom   33 type  1   force =    -1.69236515   -2.80409739   -1.02026712
     atom   34 type  1   force =    -1.69236515    2.80409739   -1.02026712
     atom   35 type  1   force =     3.27460215    0.06358252   -1.02026712
     atom   36 type  1   force =    -1.58223700   -2.86767991   -1.02026712
     The core correction contribution to forces
     atom    1 type  2   force =    -0.00421378   -0.00729848   -0.00422973
     atom    2 type  2   force =     0.00842755   -0.00000000   -0.00422973
     atom    3 type  2   force =    -0.00421378    0.00729848   -0.00422973
     atom    4 type  2   force =     0.00421378    0.00729848   -0.00422973
     atom    5 type  2   force =    -0.00842755    0.00000000   -0.00422973
     atom    6 type  2   force =     0.00421378   -0.00729848   -0.00422973
     atom    7 type  2   force =    -0.00448554   -0.00776917   -0.00609600
     atom    8 type  2   force =     0.00897107    0.00000000   -0.00609600
     atom    9 type  2   force =    -0.00448554    0.00776917   -0.00609600
     atom   10 type  2   force =     0.00448554    0.00776917   -0.00609600
     atom   11 type  2   force =    -0.00897107    0.00000000   -0.00609600
     atom   12 type  2   force =     0.00448554   -0.00776917   -0.00609600
     atom   13 type  1   force =     0.00000000    0.00000000    0.00000000
     atom   14 type  1   force =     0.00000000    0.00000000    0.00000000
     atom   15 type  1   force =     0.00000000    0.00000000    0.00000000
     atom   16 type  1   force =     0.00000000    0.00000000    0.00000000
     atom   17 type  1   force =     0.00000000    0.00000000    0.00000000
     atom   18 type  1   force =     0.00000000    0.00000000    0.00000000
     atom   19 type  1   force =     0.00000000    0.00000000    0.00000000
     atom   20 type  1   force =     0.00000000    0.00000000    0.00000000
     atom   21 type  1   force =     0.00000000    0.00000000    0.00000000
     atom   22 type  1   force =     0.00000000    0.00000000    0.00000000
     atom   23 type  1   force =     0.00000000    0.00000000    0.00000000
     atom   24 type  1   force =     0.00000000    0.00000000    0.00000000
     atom   25 type  1   force =     0.00000000    0.00000000    0.00000000
     atom   26 type  1   force =     0.00000000    0.00000000    0.00000000
     atom   27 type  1   force =     0.00000000    0.00000000    0.00000000
     atom   28 type  1   force =     0.00000000    0.00000000    0.00000000
     atom   29 type  1   force =     0.00000000    0.00000000    0.00000000
     atom   30 type  1   force =     0.00000000    0.00000000    0.00000000
     atom   31 type  1   force =     0.00000000    0.00000000    0.00000000
     atom   32 type  1   force =     0.00000000    0.00000000    0.00000000
     atom   33 type  1   force =     0.00000000    0.00000000    0.00000000
     atom   34 type  1   force =     0.00000000    0.00000000    0.00000000
     atom   35 type  1   force =     0.00000000    0.00000000    0.00000000
     atom   36 type  1   force =     0.00000000    0.00000000    0.00000000
     The Hubbard contrib.    to forces
     atom    1 type  2   force =     0.00000000    0.00000000    0.00000000
     atom    2 type  2   force =     0.00000000    0.00000000    0.00000000
     atom    3 type  2   force =     0.00000000    0.00000000    0.00000000
     atom    4 type  2   force =     0.00000000    0.00000000    0.00000000
     atom    5 type  2   force =     0.00000000    0.00000000    0.00000000
     atom    6 type  2   force =     0.00000000    0.00000000    0.00000000
     atom    7 type  2   force =     0.00000000    0.00000000    0.00000000
     atom    8 type  2   force =     0.00000000    0.00000000    0.00000000
     atom    9 type  2   force =     0.00000000    0.00000000    0.00000000
     atom   10 type  2   force =     0.00000000    0.00000000    0.00000000
     atom   11 type  2   force =     0.00000000    0.00000000    0.00000000
     atom   12 type  2   force =     0.00000000    0.00000000    0.00000000
     atom   13 type  1   force =     0.00000000    0.00000000    0.00000000
     atom   14 type  1   force =     0.00000000    0.00000000    0.00000000
     atom   15 type  1   force =     0.00000000    0.00000000    0.00000000
     atom   16 type  1   force =     0.00000000    0.00000000    0.00000000
     atom   17 type  1   force =     0.00000000    0.00000000    0.00000000
     atom   18 type  1   force =     0.00000000    0.00000000    0.00000000
     atom   19 type  1   force =     0.00000000    0.00000000    0.00000000
     atom   20 type  1   force =     0.00000000    0.00000000    0.00000000
     atom   21 type  1   force =     0.00000000    0.00000000    0.00000000
     atom   22 type  1   force =     0.00000000    0.00000000    0.00000000
     atom   23 type  1   force =     0.00000000    0.00000000    0.00000000
     atom   24 type  1   force =     0.00000000    0.00000000    0.00000000
     atom   25 type  1   force =     0.00000000    0.00000000    0.00000000
     atom   26 type  1   force =     0.00000000    0.00000000    0.00000000
     atom   27 type  1   force =     0.00000000    0.00000000    0.00000000
     atom   28 type  1   force =     0.00000000    0.00000000    0.00000000
     atom   29 type  1   force =     0.00000000    0.00000000    0.00000000
     atom   30 type  1   force =     0.00000000    0.00000000    0.00000000
     atom   31 type  1   force =     0.00000000    0.00000000    0.00000000
     atom   32 type  1   force =     0.00000000    0.00000000    0.00000000
     atom   33 type  1   force =     0.00000000    0.00000000    0.00000000
     atom   34 type  1   force =     0.00000000    0.00000000    0.00000000
     atom   35 type  1   force =     0.00000000    0.00000000    0.00000000
     atom   36 type  1   force =     0.00000000    0.00000000    0.00000000
     The SCF correction term to forces
     atom    1 type  2   force =     0.00001512    0.00002619    0.00002669
     atom    2 type  2   force =    -0.00003025    0.00000000    0.00002669
     atom    3 type  2   force =     0.00001512   -0.00002619    0.00002669
     atom    4 type  2   force =    -0.00001512   -0.00002619    0.00002669
     atom    5 type  2   force =     0.00003025   -0.00000000    0.00002669
     atom    6 type  2   force =    -0.00001512    0.00002619    0.00002669
     atom    7 type  2   force =     0.00000458    0.00000793    0.00000760
     atom    8 type  2   force =    -0.00000915   -0.00000000    0.00000760
     atom    9 type  2   force =     0.00000458   -0.00000793    0.00000760
     atom   10 type  2   force =    -0.00000458   -0.00000793    0.00000760
     atom   11 type  2   force =     0.00000915   -0.00000000    0.00000760
     atom   12 type  2   force =    -0.00000458    0.00000793    0.00000760
     atom   13 type  1   force =     0.00000089    0.00000153    0.00000643
     atom   14 type  1   force =    -0.00000177   -0.00000000    0.00000643
     atom   15 type  1   force =     0.00000089   -0.00000153    0.00000643
     atom   16 type  1   force =    -0.00000089   -0.00000153    0.00000643
     atom   17 type  1   force =     0.00000177   -0.00000000    0.00000643
     atom   18 type  1   force =    -0.00000089    0.00000153    0.00000643
     atom   19 type  1   force =     0.00000325    0.00000563   -0.00000007
     atom   20 type  1   force =    -0.00000650    0.00000000   -0.00000007
     atom   21 type  1   force =     0.00000325   -0.00000563   -0.00000007
     atom   22 type  1   force =    -0.00000325   -0.00000563   -0.00000007
     atom   23 type  1   force =     0.00000650    0.00000000   -0.00000007
     atom   24 type  1   force =    -0.00000325    0.00000563   -0.00000007
     atom   25 type  1   force =    -0.00000073   -0.00000034    0.00000016
     atom   26 type  1   force =     0.00000066   -0.00000046    0.00000016
     atom   27 type  1   force =     0.00000006    0.00000080    0.00000016
     atom   28 type  1   force =     0.00000006   -0.00000080    0.00000016
     atom   29 type  1   force =    -0.00000073    0.00000034    0.00000016
     atom   30 type  1   force =     0.00000066    0.00000046    0.00000016
     atom   31 type  1   force =     0.00000073    0.00000034    0.00000016
     atom   32 type  1   force =    -0.00000066    0.00000046    0.00000016
     atom   33 type  1   force =    -0.00000006   -0.00000080    0.00000016
     atom   34 type  1   force =    -0.00000006    0.00000080    0.00000016
     atom   35 type  1   force =     0.00000073   -0.00000034    0.00000016
     atom   36 type  1   force =    -0.00000066   -0.00000046    0.00000016

     Total force =     2.423660     Total SCF correction =     0.000106


     Computing stress (Cartesian axis) and pressure

          total   stress  (Ry/bohr**3)                   (kbar)     P=      266.11
   0.00160046  -0.00000000   0.00000000          235.44       -0.00        0.00
   0.00000000   0.00160046   0.00000000            0.00      235.44        0.00
   0.00000000   0.00000000   0.00222599            0.00        0.00      327.45

     kinetic stress (kbar)   8819.68     -0.00     -0.00
                               -0.00   8819.68     -0.00
                               -0.00     -0.00   8866.98

     local   stress (kbar)  -9487.07      0.00     -0.00
                                0.00  -9487.07     -0.00
                               -0.00     -0.00 -10005.14

     nonloc. stress (kbar)   1478.88      0.00     -0.00
                                0.00   1478.88     -0.00
                               -0.00     -0.00   1478.09

     hartree stress (kbar)   4062.44     -0.00      0.00
                               -0.00   4062.44      0.00
                                0.00      0.00   4309.26

     exc-cor stress (kbar)  -1591.17     -0.00     -0.00
                               -0.00  -1591.17     -0.00
                               -0.00     -0.00  -1591.94

     corecor stress (kbar)   -287.76      0.00      0.00
                                0.00   -287.76     -0.00
                                0.00     -0.00   -288.04

     ewald   stress (kbar)  -2759.56      0.00     -0.00
                                0.00  -2759.56      0.00
                               -0.00      0.00  -2441.76

     hubbard stress (kbar)      0.00      0.00      0.00
                                0.00      0.00      0.00
                                0.00      0.00      0.00

     DFT-D   stress (kbar)      0.00      0.00      0.00
                                0.00      0.00      0.00
                                0.00      0.00      0.00

     XDM     stress (kbar)      0.00      0.00      0.00
                                0.00      0.00      0.00
                                0.00      0.00      0.00

     dft-nl  stress (kbar)      0.00      0.00      0.00
                                0.00      0.00      0.00
                                0.00      0.00      0.00

     TS-vdW  stress (kbar)      0.00      0.00      0.00
                                0.00      0.00      0.00
                                0.00      0.00      0.00

     MDB     stress (kbar)      0.00      0.00      0.00
                                0.00      0.00      0.00
                                0.00      0.00      0.00

     3D-RISM stress (kbar)      0.00      0.00      0.00
                                0.00      0.00      0.00
                                0.00      0.00      0.00


     BFGS Geometry Optimization
     Energy error            =      0.0E+00 Ry
     Gradient error          =      5.3E-01 Ry/Bohr

     number of scf cycles    =   1
     number of bfgs steps    =   0

     energy             new  =    -521.6581957131 Ry

     new trust radius        =       0.5000000000 bohr
     new conv_thr            =       0.0000000072 Ry


ATOMIC_POSITIONS (crystal)
O             0.3136103805        0.3136103805        0.5343516192
O             0.6863896195        0.0000000000        0.5343516192
O            -0.0000000000        0.6863896195        0.5343516192
O             0.6863896195        0.6863896195        0.0343516192
O             0.3136103805       -0.0000000000        0.0343516192
O             0.0000000000        0.3136103805        0.0343516192
O             0.6475596154        0.6475596154        0.4239341685
O             0.3524403846        0.0000000000        0.4239341685
O            -0.0000000000        0.3524403846        0.4239341685
O             0.3524403846        0.3524403846        0.9239341685
O             0.6475596154        0.0000000000        0.9239341685
O             0.0000000000        0.6475596154        0.9239341685
H             0.3327096121        0.3327096121        0.7099440656
H             0.6672903879        0.0000000000        0.7099440656
H            -0.0000000000        0.6672903879        0.7099440656
H             0.6672903879        0.6672903879        0.2099440656
H             0.3327096121        0.0000000000        0.2099440656
H             0.0000000000        0.3327096121        0.2099440656
H             0.4584912177        0.4584912177        0.5181040428
H             0.5415087823        0.0000000000        0.5181040428
H             0.0000000000        0.5415087823        0.5181040428
H             0.5415087823        0.5415087823        0.0181040428
H             0.4584912177        0.0000000000        0.0181040428
H            -0.0000000000        0.4584912177        0.0181040428
H             0.7911154389        0.6671028847        0.4818330520
H             0.3328971153        0.1240125542        0.4818330520
H             0.8759874458        0.2088845611        0.4818330520
H             0.6671028847        0.7911154389        0.4818330520
H             0.1240125542        0.3328971153        0.4818330520
H             0.2088845611        0.8759874458        0.4818330520
H             0.2088845611        0.3328971153        0.9818330520
H             0.6671028847        0.8759874458        0.9818330520
H             0.1240125542        0.7911154389        0.9818330520
H             0.3328971153        0.2088845611        0.9818330520
H             0.8759874458        0.6671028847        0.9818330520
H             0.7911154389        0.1240125542        0.9818330520



     Writing config-only to output data dir ./out/IceIh.save/
     NEW-OLD atomic charge density approx. for the potential

     total cpu time spent up to now is       88.1 secs

     per-process dynamical memory:   300.6 Mb

     Self-consistent Calculation

     iteration #  1     ecut=    50.00 Ry     beta= 0.40
     Davidson diagonalization with overlap

---- Real-time Memory Report at c_bands before calling an iterative solver
           893 MiB given to the printing process from OS
           309 MiB allocation reported by mallinfo(arena+hblkhd)
        227937 MiB available memory on the node where the printing process lives
------------------
     c_bands:  4 eigenvalues not converged
     c_bands:  1 eigenvalues not converged
     c_bands:  2 eigenvalues not converged
     ethr =  1.00E-06,  avg # of iterations = 19.2

     total cpu time spent up to now is      109.2 secs

     total energy              =    -522.30122479 Ry
     estimated scf accuracy    <       0.86042515 Ry

     iteration #  2     ecut=    50.00 Ry     beta= 0.40
     Davidson diagonalization with overlap

---- Real-time Memory Report at c_bands before calling an iterative solver
           893 MiB given to the printing process from OS
           372 MiB allocation reported by mallinfo(arena+hblkhd)
        227879 MiB available memory on the node where the printing process lives
------------------
     ethr =  8.96E-04,  avg # of iterations =  1.5

     total cpu time spent up to now is      113.6 secs

     total energy              =    -522.12525468 Ry
     estimated scf accuracy    <       0.15839957 Ry

     iteration #  3     ecut=    50.00 Ry     beta= 0.40
     Davidson diagonalization with overlap

---- Real-time Memory Report at c_bands before calling an iterative solver
           893 MiB given to the printing process from OS
           376 MiB allocation reported by mallinfo(arena+hblkhd)
        227878 MiB available memory on the node where the printing process lives
------------------
     ethr =  1.65E-04,  avg # of iterations =  4.2

     total cpu time spent up to now is      119.3 secs

     total energy              =    -522.12311777 Ry
     estimated scf accuracy    <       0.01316773 Ry

     iteration #  4     ecut=    50.00 Ry     beta= 0.40
     Davidson diagonalization with overlap

---- Real-time Memory Report at c_bands before calling an iterative solver
           893 MiB given to the printing process from OS
           380 MiB allocation reported by mallinfo(arena+hblkhd)
        227876 MiB available memory on the node where the printing process lives
------------------
     ethr =  1.37E-05,  avg # of iterations = 10.5

     total cpu time spent up to now is      126.2 secs

     total energy              =    -522.11974793 Ry
     estimated scf accuracy    <       0.00296653 Ry

     iteration #  5     ecut=    50.00 Ry     beta= 0.40
     Davidson diagonalization with overlap

---- Real-time Memory Report at c_bands before calling an iterative solver
           893 MiB given to the printing process from OS
           384 MiB allocation reported by mallinfo(arena+hblkhd)
        227875 MiB available memory on the node where the printing process lives
------------------
     ethr =  3.09E-06,  avg # of iterations =  4.0

     total cpu time spent up to now is      131.5 secs

     total energy              =    -522.11930188 Ry
     estimated scf accuracy    <       0.00042135 Ry

     iteration #  6     ecut=    50.00 Ry     beta= 0.40
     Davidson diagonalization with overlap

---- Real-time Memory Report at c_bands before calling an iterative solver
           893 MiB given to the printing process from OS
           388 MiB allocation reported by mallinfo(arena+hblkhd)
        227867 MiB available memory on the node where the printing process lives
------------------
     ethr =  4.39E-07,  avg # of iterations =  2.0

     total cpu time spent up to now is      137.1 secs

     total energy              =    -522.11940740 Ry
     estimated scf accuracy    <       0.00003093 Ry

     iteration #  7     ecut=    50.00 Ry     beta= 0.40
     Davidson diagonalization with overlap

---- Real-time Memory Report at c_bands before calling an iterative solver
           893 MiB given to the printing process from OS
           391 MiB allocation reported by mallinfo(arena+hblkhd)
        227864 MiB available memory on the node where the printing process lives
------------------
     ethr =  3.22E-08,  avg # of iterations =  3.8

     total cpu time spent up to now is      143.0 secs

     total energy              =    -522.11941339 Ry
     estimated scf accuracy    <       0.00002435 Ry

     iteration #  8     ecut=    50.00 Ry     beta= 0.40
     Davidson diagonalization with overlap

---- Real-time Memory Report at c_bands before calling an iterative solver
           893 MiB given to the printing process from OS
           395 MiB allocation reported by mallinfo(arena+hblkhd)
        227846 MiB available memory on the node where the printing process lives
------------------
     ethr =  2.54E-08,  avg # of iterations =  2.0

     total cpu time spent up to now is      148.1 secs

     total energy              =    -522.11941852 Ry
     estimated scf accuracy    <       0.00000048 Ry

     iteration #  9     ecut=    50.00 Ry     beta= 0.40
     Davidson diagonalization with overlap

---- Real-time Memory Report at c_bands before calling an iterative solver
           893 MiB given to the printing process from OS
           399 MiB allocation reported by mallinfo(arena+hblkhd)
        227849 MiB available memory on the node where the printing process lives
------------------
     ethr =  4.98E-10,  avg # of iterations =  3.8

     total cpu time spent up to now is      154.6 secs

     total energy              =    -522.11941870 Ry
     estimated scf accuracy    <       0.00000027 Ry

     iteration # 10     ecut=    50.00 Ry     beta= 0.40
     Davidson diagonalization with overlap

---- Real-time Memory Report at c_bands before calling an iterative solver
           893 MiB given to the printing process from OS
           403 MiB allocation reported by mallinfo(arena+hblkhd)
        227845 MiB available memory on the node where the printing process lives
------------------
     ethr =  2.81E-10,  avg # of iterations =  2.0

     total cpu time spent up to now is      159.6 secs

     total energy              =    -522.11941875 Ry
     estimated scf accuracy    <       0.00000003 Ry

     iteration # 11     ecut=    50.00 Ry     beta= 0.40
     Davidson diagonalization with overlap

---- Real-time Memory Report at c_bands before calling an iterative solver
           893 MiB given to the printing process from OS
           403 MiB allocation reported by mallinfo(arena+hblkhd)
        227844 MiB available memory on the node where the printing process lives
------------------
     ethr =  2.65E-11,  avg # of iterations =  2.0

     total cpu time spent up to now is      164.8 secs

     End of self-consistent calculation

          k = 0.0000 0.0000 0.0000 ( 15715 PWs)   bands (ev):

   -20.8576 -20.5751 -20.3693 -20.3693 -20.3642 -20.3642 -19.5731 -19.5731
   -19.5645 -19.5645 -19.3074 -18.9522  -8.2186  -8.1621  -8.0560  -8.0122
    -7.9855  -7.9855  -7.9167  -7.9167  -7.5781  -7.5781  -7.3557  -7.3557
    -6.9744  -6.9314  -6.5898  -6.5898  -6.3792  -6.3792  -5.5680  -5.5680
    -5.3098  -5.3098  -4.7599  -4.3307  -3.7812  -3.7812  -3.5367  -3.5156
    -3.5156  -3.4998  -3.4998  -3.4641  -3.4305  -3.4305  -3.2868  -3.0888
     1.3927   4.2307   4.4202   4.4202   4.5171   4.5171   5.1126   5.2138
     5.4113   6.3353

     occupation numbers 
     1.0000   1.0000   1.0000   1.0000   1.0000   1.0000   1.0000   1.0000
     1.0000   1.0000   1.0000   1.0000   1.0000   1.0000   1.0000   1.0000
     1.0000   1.0000   1.0000   1.0000   1.0000   1.0000   1.0000   1.0000
     1.0000   1.0000   1.0000   1.0000   1.0000   1.0000   1.0000   1.0000
     1.0000   1.0000   1.0000   1.0000   1.0000   1.0000   1.0000   1.0000
     1.0000   1.0000   1.0000   1.0000   1.0000   1.0000   1.0000   1.0000
     0.0000   0.0000   0.0000   0.0000   0.0000   0.0000   0.0000   0.0000
     0.0000   0.0000

          k = 0.0000 0.0000-0.5312 ( 15740 PWs)   bands (ev):

   -20.7312 -20.7312 -20.3654 -20.3654 -20.3654 -20.3654 -19.5707 -19.5707
   -19.5707 -19.5707 -19.1155 -19.1155  -8.1391  -8.1391  -8.0831  -8.0831
    -7.9334  -7.9334  -7.9334  -7.9334  -7.4170  -7.4170  -7.4170  -7.4170
    -6.9280  -6.9280  -6.5926  -6.5926  -6.5926  -6.5926  -5.4059  -5.4059
    -5.4059  -5.4059  -4.6029  -4.6029  -3.6616  -3.6616  -3.6616  -3.6616
    -3.5313  -3.5313  -3.4776  -3.4776  -3.4776  -3.4776  -3.1859  -3.1859
     2.5112   2.5112   4.9068   4.9068   4.9068   4.9068   5.5506   5.5506
     5.6237   5.6237

     occupation numbers 
     1.0000   1.0000   1.0000   1.0000   1.0000   1.0000   1.0000   1.0000
     1.0000   1.0000   1.0000   1.0000   1.0000   1.0000   1.0000   1.0000
     1.0000   1.0000   1.0000   1.0000   1.0000   1.0000   1.0000   1.0000
     1.0000   1.0000   1.0000   1.0000   1.0000   1.0000   1.0000   1.0000
     1.0000   1.0000   1.0000   1.0000   1.0000   1.0000   1.0000   1.0000
     1.0000   1.0000   1.0000   1.0000   1.0000   1.0000   1.0000   1.0000
     0.0000   0.0000   0.0000   0.0000   0.0000   0.0000   0.0000   0.0000
     0.0000   0.0000

          k = 0.0000-0.5774 0.0000 ( 15704 PWs)   bands (ev):

   -20.6750 -20.6707 -20.4995 -20.4224 -20.4184 -20.3317 -19.6059 -19.5003
   -19.4983 -19.4149 -19.2025 -19.1977  -8.1097  -8.1064  -8.0564  -8.0371
    -8.0124  -7.9276  -7.8254  -7.8213  -7.7962  -7.4161  -7.3274  -7.2706
    -7.1498  -7.0836  -7.0520  -6.4899  -6.4291  -6.2336  -5.6802  -5.4747
    -5.2301  -4.9425  -4.6843  -4.6511  -3.8912  -3.7422  -3.6712  -3.6043
    -3.4901  -3.4779  -3.4466  -3.3963  -3.3612  -3.3432  -3.3064  -3.2168
     2.5590   2.5679   3.7337   4.6643   5.0963   5.1038   5.5234   5.5462
     5.8373   5.9167

     occupation numbers 
     1.0000   1.0000   1.0000   1.0000   1.0000   1.0000   1.0000   1.0000
     1.0000   1.0000   1.0000   1.0000   1.0000   1.0000   1.0000   1.0000
     1.0000   1.0000   1.0000   1.0000   1.0000   1.0000   1.0000   1.0000
     1.0000   1.0000   1.0000   1.0000   1.0000   1.0000   1.0000   1.0000
     1.0000   1.0000   1.0000   1.0000   1.0000   1.0000   1.0000   1.0000
     1.0000   1.0000   1.0000   1.0000   1.0000   1.0000   1.0000   1.0000
     0.0000   0.0000   0.0000   0.0000   0.0000   0.0000   0.0000   0.0000
     0.0000   0.0000

          k = 0.0000-0.5774-0.5312 ( 15680 PWs)   bands (ev):

   -20.5634 -20.5634 -20.5592 -20.5592 -20.4232 -20.4232 -19.5034 -19.5034
   -19.3373 -19.3373 -19.3339 -19.3339  -8.0505  -8.0505  -8.0416  -8.0416
    -7.9922  -7.9922  -7.6763  -7.6763  -7.6736  -7.6736  -7.5098  -7.5098
    -6.8038  -6.8038  -6.7304  -6.7304  -6.6899  -6.6899  -5.2947  -5.2947
    -5.0835  -5.0835  -4.9754  -4.9754  -3.6150  -3.6150  -3.6139  -3.6139
    -3.5948  -3.5948  -3.4514  -3.4514  -3.3928  -3.3928  -3.3039  -3.3039
     3.5075   3.5075   3.5144   3.5144   4.5135   4.5135   5.4857   5.4857
     6.4078   6.4079

     occupation numbers 
     1.0000   1.0000   1.0000   1.0000   1.0000   1.0000   1.0000   1.0000
     1.0000   1.0000   1.0000   1.0000   1.0000   1.0000   1.0000   1.0000
     1.0000   1.0000   1.0000   1.0000   1.0000   1.0000   1.0000   1.0000
     1.0000   1.0000   1.0000   1.0000   1.0000   1.0000   1.0000   1.0000
     1.0000   1.0000   1.0000   1.0000   1.0000   1.0000   1.0000   1.0000
     1.0000   1.0000   1.0000   1.0000   1.0000   1.0000   1.0000   1.0000
     0.0000   0.0000   0.0000   0.0000   0.0000   0.0000   0.0000   0.0000
     0.0000   0.0000

     the Fermi energy is    -1.3626 ev

!    total energy              =    -522.11941877 Ry
     estimated scf accuracy    <          6.9E-10 Ry
     smearing contrib. (-TS)   =       0.00000000 Ry
     internal energy E=F+TS    =    -522.11941877 Ry

     The total energy is F=E-TS. E is the sum of the following terms:
     one-electron contribution =    -327.54014785 Ry
     hartree contribution      =     196.40392899 Ry
     xc contribution           =    -102.48395780 Ry
     ewald contribution        =    -179.20593541 Ry
     one-center paw contrib.   =    -109.29330669 Ry
      -> PAW hartree energy AE =     316.23211897 Ry
      -> PAW hartree energy PS =    -314.75181370 Ry
      -> PAW xc energy AE      =    -194.71538434 Ry
      -> PAW xc energy PS      =      83.94177238 Ry
      -> total E_H with PAW    =     197.88423426 Ry
      -> total E_XC with PAW   =    -213.25756976 Ry

     convergence has been achieved in  11 iterations

     Forces acting on atoms (cartesian axes, Ry/au):

     atom    1 type  2   force =     0.05657269    0.09798678    0.14367352
     atom    2 type  2   force =    -0.11314539   -0.00000000    0.14367352
     atom    3 type  2   force =     0.05657269   -0.09798678    0.14367352
     atom    4 type  2   force =    -0.05657269   -0.09798678    0.14367352
     atom    5 type  2   force =     0.11314539    0.00000000    0.14367352
     atom    6 type  2   force =    -0.05657269    0.09798678    0.14367352
     atom    7 type  2   force =     0.05610858    0.09718291    0.05672385
     atom    8 type  2   force =    -0.11221716   -0.00000000    0.05672385
     atom    9 type  2   force =     0.05610858   -0.09718291    0.05672385
     atom   10 type  2   force =    -0.05610858   -0.09718291    0.05672385
     atom   11 type  2   force =     0.11221716    0.00000000    0.05672385
     atom   12 type  2   force =    -0.05610858    0.09718291    0.05672385
     atom   13 type  1   force =    -0.01508739   -0.02613212   -0.08309927
     atom   14 type  1   force =     0.03017478   -0.00000000   -0.08309927
     atom   15 type  1   force =    -0.01508739    0.02613212   -0.08309927
     atom   16 type  1   force =     0.01508739    0.02613212   -0.08309927
     atom   17 type  1   force =    -0.03017478    0.00000000   -0.08309927
     atom   18 type  1   force =     0.01508739   -0.02613212   -0.08309927
     atom   19 type  1   force =    -0.04803025   -0.08319083   -0.02975934
     atom   20 type  1   force =     0.09606049   -0.00000000   -0.02975934
     atom   21 type  1   force =    -0.04803025    0.08319083   -0.02975934
     atom   22 type  1   force =     0.04803025    0.08319083   -0.02975934
     atom   23 type  1   force =    -0.09606049    0.00000000   -0.02975934
     atom   24 type  1   force =     0.04803025   -0.08319083   -0.02975934
     atom   25 type  1   force =    -0.05251642   -0.02545105   -0.04376938
     atom   26 type  1   force =     0.04829947   -0.03275503   -0.04376938
     atom   27 type  1   force =     0.00421696    0.05820608   -0.04376938
     atom   28 type  1   force =     0.00421696   -0.05820608   -0.04376938
     atom   29 type  1   force =    -0.05251642    0.02545105   -0.04376938
     atom   30 type  1   force =     0.04829947    0.03275503   -0.04376938
     atom   31 type  1   force =     0.05251642    0.02545105   -0.04376938
     atom   32 type  1   force =    -0.04829947    0.03275503   -0.04376938
     atom   33 type  1   force =    -0.00421696   -0.05820608   -0.04376938
     atom   34 type  1   force =    -0.00421696    0.05820608   -0.04376938
     atom   35 type  1   force =     0.05251642   -0.02545105   -0.04376938
     atom   36 type  1   force =    -0.04829947   -0.03275503   -0.04376938
     The non-local contrib.  to forces
     atom    1 type  2   force =     0.57962409    1.00393838    0.84017444
     atom    2 type  2   force =    -1.15924819   -0.00000000    0.84017444
     atom    3 type  2   force =     0.57962409   -1.00393838    0.84017444
     atom    4 type  2   force =    -0.57962409   -1.00393838    0.84017444
     atom    5 type  2   force =     1.15924819    0.00000000    0.84017444
     atom    6 type  2   force =    -0.57962409    1.00393838    0.84017444
     atom    7 type  2   force =     0.63153354    1.09384818    0.66654225
     atom    8 type  2   force =    -1.26306708   -0.00000000    0.66654225
     atom    9 type  2   force =     0.63153354   -1.09384818    0.66654225
     atom   10 type  2   force =    -0.63153354   -1.09384818    0.66654225
     atom   11 type  2   force =     1.26306708    0.00000000    0.66654225
     atom   12 type  2   force =    -0.63153354    1.09384818    0.66654225
     atom   13 type  1   force =    -0.00153608   -0.00266057   -0.02476297
     atom   14 type  1   force =     0.00307216    0.00000000   -0.02476297
     atom   15 type  1   force =    -0.00153608    0.00266057   -0.02476297
     atom   16 type  1   force =     0.00153608    0.00266057   -0.02476297
     atom   17 type  1   force =    -0.00307216   -0.00000000   -0.02476297
     atom   18 type  1   force =     0.00153608   -0.00266057   -0.02476297
     atom   19 type  1   force =    -0.02606831   -0.04515163    0.00508062
     atom   20 type  1   force =     0.05213662   -0.00000000    0.00508062
     atom   21 type  1   force =    -0.02606831    0.04515163    0.00508062
     atom   22 type  1   force =     0.02606831    0.04515163    0.00508062
     atom   23 type  1   force =    -0.05213662    0.00000000    0.00508062
     atom   24 type  1   force =     0.02606831   -0.04515163    0.00508062
     atom   25 type  1   force =    -0.04725113   -0.00586493   -0.01957121
     atom   26 type  1   force =     0.02870475   -0.03798821   -0.01957121
     atom   27 type  1   force =     0.01854638    0.04385315   -0.01957121
     atom   28 type  1   force =     0.01854638   -0.04385315   -0.01957121
     atom   29 type  1   force =    -0.04725113    0.00586493   -0.01957121
     atom   30 type  1   force =     0.02870475    0.03798821   -0.01957121
     atom   31 type  1   force =     0.04725113    0.00586493   -0.01957121
     atom   32 type  1   force =    -0.02870475    0.03798821   -0.01957121
     atom   33 type  1   force =    -0.01854638   -0.04385315   -0.01957121
     atom   34 type  1   force =    -0.01854638    0.04385315   -0.01957121
     atom   35 type  1   force =     0.04725113   -0.00586493   -0.01957121
     atom   36 type  1   force =    -0.02870475   -0.03798821   -0.01957121
     The ionic contribution  to forces
     atom    1 type  2   force =    -0.94084015   -1.62958294   -0.81016720
     atom    2 type  2   force =     1.88168030    0.00000000   -0.81016720
     atom    3 type  2   force =    -0.94084015    1.62958294   -0.81016720
     atom    4 type  2   force =     0.94084015    1.62958294   -0.81016720
     atom    5 type  2   force =    -1.88168030    0.00000000   -0.81016720
     atom    6 type  2   force =     0.94084015   -1.62958294   -0.81016720
     atom    7 type  2   force =    -1.05798826   -1.83248942   -1.31765088
     atom    8 type  2   force =     2.11597652   -0.00000000   -1.31765088
     atom    9 type  2   force =    -1.05798826    1.83248942   -1.31765088
     atom   10 type  2   force =     1.05798826    1.83248942   -1.31765088
     atom   11 type  2   force =    -2.11597652    0.00000000   -1.31765088
     atom   12 type  2   force =     1.05798826   -1.83248942   -1.31765088
     atom   13 type  1   force =     0.03237733    0.05607917    0.76222894
     atom   14 type  1   force =    -0.06475465    0.00000000    0.76222894
     atom   15 type  1   force =     0.03237733   -0.05607917    0.76222894
     atom   16 type  1   force =    -0.03237733   -0.05607917    0.76222894
     atom   17 type  1   force =     0.06475465    0.00000000    0.76222894
     atom   18 type  1   force =    -0.03237733    0.05607917    0.76222894
     atom   19 type  1   force =     0.78671203    1.36262520    0.04952962
     atom   20 type  1   force =    -1.57342406    0.00000000    0.04952962
     atom   21 type  1   force =     0.78671203   -1.36262520    0.04952962
     atom   22 type  1   force =    -0.78671203   -1.36262520    0.04952962
     atom   23 type  1   force =     1.57342406   -0.00000000    0.04952962
     atom   24 type  1   force =    -0.78671203    1.36262520    0.04952962
     atom   25 type  1   force =     1.35909835    0.13776171    0.65802976
     atom   26 type  1   force =    -0.79885432    1.10813284    0.65802976
     atom   27 type  1   force =    -0.56024403   -1.24589455    0.65802976
     atom   28 type  1   force =    -0.56024403    1.24589455    0.65802976
     atom   29 type  1   force =     1.35909835   -0.13776171    0.65802976
     atom   30 type  1   force =    -0.79885432   -1.10813284    0.65802976
     atom   31 type  1   force =    -1.35909835   -0.13776171    0.65802976
     atom   32 type  1   force =     0.79885432   -1.10813284    0.65802976
     atom   33 type  1   force =     0.56024403    1.24589455    0.65802976
     atom   34 type  1   force =     0.56024403   -1.24589455    0.65802976
     atom   35 type  1   force =    -1.35909835    0.13776171    0.65802976
     atom   36 type  1   force =     0.79885432    1.10813284    0.65802976
     The local contribution  to forces
     atom    1 type  2   force =     0.42341280    0.73337248    0.12275402
     atom    2 type  2   force =    -0.84682559    0.00000000    0.12275402
     atom    3 type  2   force =     0.42341280   -0.73337248    0.12275402
     atom    4 type  2   force =    -0.42341280   -0.73337248    0.12275402
     atom    5 type  2   force =     0.84682559    0.00000000    0.12275402
     atom    6 type  2   force =    -0.42341280    0.73337248    0.12275402
     atom    7 type  2   force =     0.48859863    0.84627766    0.71382596
     atom    8 type  2   force =    -0.97719727    0.00000000    0.71382596
     atom    9 type  2   force =     0.48859863   -0.84627766    0.71382596
     atom   10 type  2   force =    -0.48859863   -0.84627766    0.71382596
     atom   11 type  2   force =     0.97719727    0.00000000    0.71382596
     atom   12 type  2   force =    -0.48859863    0.84627766    0.71382596
     atom   13 type  1   force =    -0.04592860   -0.07955068   -0.82056625
     atom   14 type  1   force =     0.09185721    0.00000000   -0.82056625
     atom   15 type  1   force =    -0.04592860    0.07955068   -0.82056625
     atom   16 type  1   force =     0.04592860    0.07955068   -0.82056625
     atom   17 type  1   force =    -0.09185721    0.00000000   -0.82056625
     atom   18 type  1   force =     0.04592860   -0.07955068   -0.82056625
     atom   19 type  1   force =    -0.80867382   -1.40066415   -0.08436972
     atom   20 type  1   force =     1.61734765    0.00000000   -0.08436972
     atom   21 type  1   force =    -0.80867382    1.40066415   -0.08436972
     atom   22 type  1   force =     0.80867382    1.40066415   -0.08436972
     atom   23 type  1   force =    -1.61734765    0.00000000   -0.08436972
     atom   24 type  1   force =     0.80867382   -1.40066415   -0.08436972
     atom   25 type  1   force =    -1.36436566   -0.15734803   -0.68222850
     atom   26 type  1   force =     0.81845023   -1.10290130   -0.68222850
     atom   27 type  1   force =     0.54591543    1.26024934   -0.68222850
     atom   28 type  1   force =     0.54591543   -1.26024934   -0.68222850
     atom   29 type  1   force =    -1.36436566    0.15734803   -0.68222850
     atom   30 type  1   force =     0.81845023    1.10290130   -0.68222850
     atom   31 type  1   force =     1.36436566    0.15734803   -0.68222850
     atom   32 type  1   force =    -0.81845023    1.10290130   -0.68222850
     atom   33 type  1   force =    -0.54591543   -1.26024934   -0.68222850
     atom   34 type  1   force =    -0.54591543    1.26024934   -0.68222850
     atom   35 type  1   force =     1.36436566   -0.15734803   -0.68222850
     atom   36 type  1   force =    -0.81845023   -1.10290130   -0.68222850
     The core correction contribution to forces
     atom    1 type  2   force =    -0.00561871   -0.00973188   -0.00908040
     atom    2 type  2   force =     0.01123741    0.00000000   -0.00908040
     atom    3 type  2   force =    -0.00561871    0.00973188   -0.00908040
     atom    4 type  2   force =     0.00561871    0.00973188   -0.00908040
     atom    5 type  2   force =    -0.01123741    0.00000000   -0.00908040
     atom    6 type  2   force =     0.00561871   -0.00973188   -0.00908040
[...]
     atom   10 type  2   force =    -0.49196896   -0.85211524    0.75803472
     atom   11 type  2   force =     0.98393793    0.00000000    0.75803472
     atom   12 type  2   force =    -0.49196896    0.85211524    0.75803472
     atom   13 type  1   force =    -0.01297158   -0.02246743   -2.40822439
     atom   14 type  1   force =     0.02594315   -0.00000000   -2.40822439
     atom   15 type  1   force =    -0.01297158    0.02246743   -2.40822439
     atom   16 type  1   force =     0.01297158    0.02246743   -2.40822439
     atom   17 type  1   force =    -0.02594315    0.00000000   -2.40822439
     atom   18 type  1   force =     0.01297158   -0.02246743   -2.40822439
     atom   19 type  1   force =    -1.13727884   -1.96982474    0.76634541
     atom   20 type  1   force =     2.27455769    0.00000000    0.76634541
     atom   21 type  1   force =    -1.13727884    1.96982474    0.76634541
     atom   22 type  1   force =     1.13727884    1.96982474    0.76634541
     atom   23 type  1   force =    -2.27455769   -0.00000000    0.76634541
     atom   24 type  1   force =     1.13727884   -1.96982474    0.76634541
     atom   25 type  1   force =    -2.27236420   -0.02733049   -0.80251910
     atom   26 type  1   force =     1.15985100   -1.95425988   -0.80251910
     atom   27 type  1   force =     1.11251320    1.98159037   -0.80251910
     atom   28 type  1   force =     1.11251320   -1.98159037   -0.80251910
     atom   29 type  1   force =    -2.27236420    0.02733049   -0.80251910
     atom   30 type  1   force =     1.15985100    1.95425988   -0.80251910
     atom   31 type  1   force =     2.27236420    0.02733049   -0.80251910
     atom   32 type  1   force =    -1.15985100    1.95425988   -0.80251910
     atom   33 type  1   force =    -1.11251320   -1.98159037   -0.80251910
     atom   34 type  1   force =    -1.11251320    1.98159037   -0.80251910
     atom   35 type  1   force =     2.27236420   -0.02733049   -0.80251910
     atom   36 type  1   force =    -1.15985100   -1.95425988   -0.80251910
     The core correction contribution to forces
     atom    1 type  2   force =    -0.00580853   -0.01006067   -0.00825956
     atom    2 type  2   force =     0.01161706   -0.00000000   -0.00825956
     atom    3 type  2   force =    -0.00580853    0.01006067   -0.00825956
     atom    4 type  2   force =     0.00580853    0.01006067   -0.00825956
     atom    5 type  2   force =    -0.01161706   -0.00000000   -0.00825956
     atom    6 type  2   force =     0.00580853   -0.01006067   -0.00825956
     atom    7 type  2   force =    -0.00584144   -0.01011767   -0.00818365
     atom    8 type  2   force =     0.01168288    0.00000000   -0.00818365
     atom    9 type  2   force =    -0.00584144    0.01011767   -0.00818365
     atom   10 type  2   force =     0.00584144    0.01011767   -0.00818365
     atom   11 type  2   force =    -0.01168288    0.00000000   -0.00818365
     atom   12 type  2   force =     0.00584144   -0.01011767   -0.00818365
     atom   13 type  1   force =     0.00000000    0.00000000    0.00000000
     atom   14 type  1   force =     0.00000000    0.00000000    0.00000000
     atom   15 type  1   force =     0.00000000    0.00000000    0.00000000
     atom   16 type  1   force =     0.00000000    0.00000000    0.00000000
     atom   17 type  1   force =     0.00000000    0.00000000    0.00000000
     atom   18 type  1   force =     0.00000000    0.00000000    0.00000000
     atom   19 type  1   force =     0.00000000    0.00000000    0.00000000
     atom   20 type  1   force =     0.00000000    0.00000000    0.00000000
     atom   21 type  1   force =     0.00000000    0.00000000    0.00000000
     atom   22 type  1   force =     0.00000000    0.00000000    0.00000000
     atom   23 type  1   force =     0.00000000    0.00000000    0.00000000
     atom   24 type  1   force =     0.00000000    0.00000000    0.00000000
     atom   25 type  1   force =     0.00000000    0.00000000    0.00000000
     atom   26 type  1   force =     0.00000000    0.00000000    0.00000000
     atom   27 type  1   force =     0.00000000    0.00000000    0.00000000
     atom   28 type  1   force =     0.00000000    0.00000000    0.00000000
     atom   29 type  1   force =     0.00000000    0.00000000    0.00000000
     atom   30 type  1   force =     0.00000000    0.00000000    0.00000000
     atom   31 type  1   force =     0.00000000    0.00000000    0.00000000
     atom   32 type  1   force =     0.00000000    0.00000000    0.00000000
     atom   33 type  1   force =     0.00000000    0.00000000    0.00000000
     atom   34 type  1   force =     0.00000000    0.00000000    0.00000000
     atom   35 type  1   force =     0.00000000    0.00000000    0.00000000
     atom   36 type  1   force =     0.00000000    0.00000000    0.00000000
     The Hubbard contrib.    to forces
     atom    1 type  2   force =     0.00000000    0.00000000    0.00000000
     atom    2 type  2   force =     0.00000000    0.00000000    0.00000000
     atom    3 type  2   force =     0.00000000    0.00000000    0.00000000
     atom    4 type  2   force =     0.00000000    0.00000000    0.00000000
     atom    5 type  2   force =     0.00000000    0.00000000    0.00000000
     atom    6 type  2   force =     0.00000000    0.00000000    0.00000000
     atom    7 type  2   force =     0.00000000    0.00000000    0.00000000
     atom    8 type  2   force =     0.00000000    0.00000000    0.00000000
     atom    9 type  2   force =     0.00000000    0.00000000    0.00000000
     atom   10 type  2   force =     0.00000000    0.00000000    0.00000000
     atom   11 type  2   force =     0.00000000    0.00000000    0.00000000
     atom   12 type  2   force =     0.00000000    0.00000000    0.00000000
     atom   13 type  1   force =     0.00000000    0.00000000    0.00000000
     atom   14 type  1   force =     0.00000000    0.00000000    0.00000000
     atom   15 type  1   force =     0.00000000    0.00000000    0.00000000
     atom   16 type  1   force =     0.00000000    0.00000000    0.00000000
     atom   17 type  1   force =     0.00000000    0.00000000    0.00000000
     atom   18 type  1   force =     0.00000000    0.00000000    0.00000000
     atom   19 type  1   force =     0.00000000    0.00000000    0.00000000
     atom   20 type  1   force =     0.00000000    0.00000000    0.00000000
     atom   21 type  1   force =     0.00000000    0.00000000    0.00000000
     atom   22 type  1   force =     0.00000000    0.00000000    0.00000000
     atom   23 type  1   force =     0.00000000    0.00000000    0.00000000
     atom   24 type  1   force =     0.00000000    0.00000000    0.00000000
     atom   25 type  1   force =     0.00000000    0.00000000    0.00000000
     atom   26 type  1   force =     0.00000000    0.00000000    0.00000000
     atom   27 type  1   force =     0.00000000    0.00000000    0.00000000
     atom   28 type  1   force =     0.00000000    0.00000000    0.00000000
     atom   29 type  1   force =     0.00000000    0.00000000    0.00000000
     atom   30 type  1   force =     0.00000000    0.00000000    0.00000000
     atom   31 type  1   force =     0.00000000    0.00000000    0.00000000
     atom   32 type  1   force =     0.00000000    0.00000000    0.00000000
     atom   33 type  1   force =     0.00000000    0.00000000    0.00000000
     atom   34 type  1   force =     0.00000000    0.00000000    0.00000000
     atom   35 type  1   force =     0.00000000    0.00000000    0.00000000
     atom   36 type  1   force =     0.00000000    0.00000000    0.00000000
     The SCF correction term to forces
     atom    1 type  2   force =     0.00000009    0.00000015   -0.00000136
     atom    2 type  2   force =    -0.00000017    0.00000000   -0.00000136
     atom    3 type  2   force =     0.00000009   -0.00000015   -0.00000136
     atom    4 type  2   force =    -0.00000009   -0.00000015   -0.00000136
     atom    5 type  2   force =     0.00000017    0.00000000   -0.00000136
     atom    6 type  2   force =    -0.00000009    0.00000015   -0.00000136
     atom    7 type  2   force =     0.00000224    0.00000388    0.00000122
     atom    8 type  2   force =    -0.00000448    0.00000000    0.00000122
     atom    9 type  2   force =     0.00000224   -0.00000388    0.00000122
     atom   10 type  2   force =    -0.00000224   -0.00000388    0.00000122
     atom   11 type  2   force =     0.00000448    0.00000000    0.00000122
     atom   12 type  2   force =    -0.00000224    0.00000388    0.00000122
     atom   13 type  1   force =    -0.00000007   -0.00000012   -0.00000027
     atom   14 type  1   force =     0.00000014    0.00000000   -0.00000027
     atom   15 type  1   force =    -0.00000007    0.00000012   -0.00000027
     atom   16 type  1   force =     0.00000007    0.00000012   -0.00000027
     atom   17 type  1   force =    -0.00000014    0.00000000   -0.00000027
     atom   18 type  1   force =     0.00000007   -0.00000012   -0.00000027
     atom   19 type  1   force =    -0.00000019   -0.00000032    0.00000008
     atom   20 type  1   force =     0.00000037    0.00000000    0.00000008
     atom   21 type  1   force =    -0.00000019    0.00000032    0.00000008
     atom   22 type  1   force =     0.00000019    0.00000032    0.00000008
     atom   23 type  1   force =    -0.00000037    0.00000000    0.00000008
     atom   24 type  1   force =     0.00000019   -0.00000032    0.00000008
     atom   25 type  1   force =     0.00000019    0.00000026    0.00000007
     atom   26 type  1   force =    -0.00000031    0.00000003    0.00000007
     atom   27 type  1   force =     0.00000013   -0.00000029    0.00000007
     atom   28 type  1   force =     0.00000013    0.00000029    0.00000007
     atom   29 type  1   force =     0.00000019   -0.00000026    0.00000007
     atom   30 type  1   force =    -0.00000031   -0.00000003    0.00000007
     atom   31 type  1   force =    -0.00000019   -0.00000026    0.00000007
     atom   32 type  1   force =     0.00000031   -0.00000003    0.00000007
     atom   33 type  1   force =    -0.00000013    0.00000029    0.00000007
     atom   34 type  1   force =    -0.00000013   -0.00000029    0.00000007
     atom   35 type  1   force =    -0.00000019    0.00000026    0.00000007
     atom   36 type  1   force =     0.00000031    0.00000003    0.00000007

     Total force =     0.000200     Total SCF correction =     0.000012


     Computing stress (Cartesian axis) and pressure

          total   stress  (Ry/bohr**3)                   (kbar)     P=      -21.32
  -0.00014597  -0.00000000   0.00000000          -21.47       -0.00        0.00
   0.00000000  -0.00014597  -0.00000000            0.00      -21.47       -0.00
   0.00000000   0.00000000  -0.00014285            0.00        0.00      -21.01

     kinetic stress (kbar)   8444.32     -0.00     -0.00
                                0.00   8444.32     -0.00
                                0.00     -0.00   8447.68

     local   stress (kbar)  -8745.79     -0.00     -0.00
                               -0.00  -8745.79     -0.00
                               -0.00     -0.00  -9318.94

     nonloc. stress (kbar)   1490.84      0.00      0.00
                                0.00   1490.84      0.00
                                0.00      0.00   1490.85

     hartree stress (kbar)   3778.25     -0.00     -0.00
                               -0.00   3778.25      0.00
                               -0.00      0.00   4046.34

     exc-cor stress (kbar)  -1535.80     -0.00      0.00
                               -0.00  -1535.80     -0.00
                                0.00     -0.00  -1535.81

     corecor stress (kbar)   -285.53     -0.00     -0.00
                               -0.00   -285.53     -0.00
                               -0.00     -0.00   -285.53

     ewald   stress (kbar)  -3167.77      0.00      0.00
                                0.00  -3167.77     -0.00
                                0.00     -0.00  -2865.59

     hubbard stress (kbar)      0.00      0.00      0.00
                                0.00      0.00      0.00
                                0.00      0.00      0.00

     DFT-D   stress (kbar)      0.00      0.00      0.00
                                0.00      0.00      0.00
                                0.00      0.00      0.00

     XDM     stress (kbar)      0.00      0.00      0.00
                                0.00      0.00      0.00
                                0.00      0.00      0.00

     dft-nl  stress (kbar)      0.00      0.00      0.00
                                0.00      0.00      0.00
                                0.00      0.00      0.00

     TS-vdW  stress (kbar)      0.00      0.00      0.00
                                0.00      0.00      0.00
                                0.00      0.00      0.00

     MDB     stress (kbar)      0.00      0.00      0.00
                                0.00      0.00      0.00
                                0.00      0.00      0.00

     3D-RISM stress (kbar)      0.00      0.00      0.00
                                0.00      0.00      0.00
                                0.00      0.00      0.00

     Energy error            =      2.3E-07 Ry
     Gradient error          =      3.7E-05 Ry/Bohr

     bfgs converged in  33 scf cycles and  31 bfgs steps
     (criteria: energy <  3.6E-04 Ry, force <  1.0E-04 Ry/Bohr)

     End of BFGS Geometry Optimization

     Final energy             =    -522.7102484994 Ry

     File ./out/IceIh.bfgs deleted, as requested
Begin final coordinates

ATOMIC_POSITIONS (crystal)
O             0.3307775014        0.3307775014        0.5558618715
O             0.6692224986        0.0000000000        0.5558618715
O             0.0000000000        0.6692224986        0.5558618715
O             0.6692224986        0.6692224986        0.0558618715
O             0.3307775014       -0.0000000000        0.0558618715
O             0.0000000000        0.3307775014        0.0558618715
O             0.6637735972        0.6637735972        0.4311192124
O             0.3362264028       -0.0000000000        0.4311192124
O            -0.0000000000        0.3362264028        0.4311192124
O             0.3362264028        0.3362264028        0.9311192124
O             0.6637735972       -0.0000000000        0.9311192124
O             0.0000000000        0.6637735972        0.9311192124
H             0.3342840733        0.3342840733        0.6924169883
H             0.6657159267        0.0000000000        0.6924169883
H             0.0000000000        0.6657159267        0.6924169883
H             0.6657159267        0.6657159267        0.1924169883
H             0.3342840733       -0.0000000000        0.1924169883
H             0.0000000000        0.3342840733        0.1924169883
H             0.4532992809        0.4532992809        0.5142728751
H             0.5467007191       -0.0000000000        0.5142728751
H             0.0000000000        0.5467007191        0.5142728751
H             0.5467007191        0.5467007191        0.0142728751
H             0.4532992809       -0.0000000000        0.0142728751
H            -0.0000000000        0.4532992809        0.0142728751
H             0.7862460160        0.6673737118        0.4781645264
H             0.3326262882        0.1188723041        0.4781645264
H             0.8811276959        0.2137539840        0.4781645264
H             0.6673737118        0.7862460160        0.4781645264
H             0.1188723041        0.3326262882        0.4781645264
H             0.2137539840        0.8811276959        0.4781645264
H             0.2137539840        0.3326262882        0.9781645264
H             0.6673737118        0.8811276959        0.9781645264
H             0.1188723041        0.7862460160        0.9781645264
H             0.3326262882        0.2137539840        0.9781645264
H             0.8811276959        0.6673737118        0.9781645264
H             0.7862460160        0.1188723041        0.9781645264
End final coordinates



     Writing all to output data dir ./out/IceIh.save/

     init_run     :      5.23s CPU      5.44s WALL (       1 calls)
     electrons    :   1435.05s CPU   1471.53s WALL (      33 calls)
     update_pot   :     46.05s CPU     46.92s WALL (      32 calls)
     forces       :    115.49s CPU    119.11s WALL (      33 calls)
     stress       :    492.35s CPU    498.20s WALL (      33 calls)

     Called by init_run:
     wfcinit      :      2.21s CPU      2.29s WALL (       1 calls)
     wfcinit:atom :      0.04s CPU      0.04s WALL (       4 calls)
     wfcinit:wfcr :      1.94s CPU      2.01s WALL (       4 calls)
     potinit      :      1.63s CPU      1.67s WALL (       1 calls)
     hinit0       :      1.04s CPU      1.09s WALL (       1 calls)

     Called by electrons:
     c_bands      :   1039.32s CPU   1047.07s WALL (     272 calls)
     sum_band     :    202.99s CPU    215.54s WALL (     272 calls)
     v_of_rho     :     90.37s CPU     94.83s WALL (     281 calls)
     v_h          :      4.04s CPU      4.12s WALL (     281 calls)
     v_xc         :    106.60s CPU    112.44s WALL (     347 calls)
     newd         :     55.22s CPU     67.52s WALL (     281 calls)
     PAW_pot      :     67.70s CPU     68.06s WALL (     313 calls)
     mix_rho      :      5.49s CPU      5.50s WALL (     272 calls)

     Called by c_bands:
     init_us_2    :     17.97s CPU     18.37s WALL (    2572 calls)
     init_us_2:cp :     17.96s CPU     18.37s WALL (    2572 calls)
     cegterg      :   1016.18s CPU   1022.40s WALL (    1088 calls)

     Called by sum_band:
     sum_band:wei :      0.01s CPU      0.01s WALL (     272 calls)
     sum_band:loo :    141.41s CPU    141.69s WALL (     272 calls)
     sum_band:buf :      1.02s CPU      1.07s WALL (    1088 calls)
     sum_band:ini :      7.76s CPU      7.81s WALL (    1088 calls)
     sum_band:cal :     30.79s CPU     30.81s WALL (    1216 calls)
     sum_band:bec :      0.08s CPU      0.08s WALL (    1216 calls)
     addusdens    :     51.79s CPU     64.01s WALL (     272 calls)
                                        0.00s GPU  (     272 calls)
     addusd:skk   :     12.20s CPU     17.37s WALL (     544 calls)
                                        0.00s GPU  (     544 calls)

     Called by *egterg:
     cdiaghg      :      9.66s CPU      9.75s WALL (    3603 calls)
     cegterg:over :     69.78s CPU     69.81s WALL (    2739 calls)
     cegterg:upda :     40.22s CPU     40.31s WALL (    2739 calls)
     cegterg:last :     95.71s CPU     95.76s WALL (    2331 calls)
     h_psi        :    696.97s CPU    700.29s WALL (    3831 calls)
     s_psi        :     71.69s CPU     73.00s WALL (    3831 calls)
     g_psi        :      4.22s CPU      4.23s WALL (    2739 calls)

     Called by h_psi:
     h_psi:calbec :     76.25s CPU     76.29s WALL (    3831 calls)
     vloc_psi     :    543.82s CPU    545.87s WALL (    3831 calls)
     add_vuspsi   :     73.34s CPU     73.39s WALL (    3831 calls)

     General routines
     calbec       :    123.62s CPU    123.69s WALL (    5707 calls)
     fft          :     35.21s CPU     35.34s WALL (    4468 calls)
     ffts         :      1.76s CPU      1.76s WALL (     553 calls)
     fftw         :    490.06s CPU    491.39s WALL (  402228 calls)
     interpolate  :      3.92s CPU      3.93s WALL (     281 calls)

     Parallel routines

     PAW routines
     PAW_pot      :     67.70s CPU     68.06s WALL (     313 calls)
     PAW_symme    :      0.05s CPU      0.05s WALL (     585 calls)

     PWSCF        :  35m13.37s CPU  36m 2.54s WALL


   This run was terminated on:   8:21:35  11Oct2024            

=------------------------------------------------------------------------------=
   JOB DONE.
=------------------------------------------------------------------------------=
